80
Lattice="16.4479299 0.0 0.0 0.0 16.73625353 0.0 0.0 0.0 11.83475491" Properties=species:S:1:pos:R:3:REF_forces:R:3 REF_energy=-346.7696133 config_weight=1.0 pbc="T T T"
Bi       4.11130893      16.73534475       0.00118407      -0.01145477       0.01885340      -0.01454187
Cs       0.03681836       0.42386001       8.82903001      -0.00019113       0.00362735      -0.00097594
Cs       8.08699284       7.92638708       2.99151798       0.00670126       0.00662375      -0.01890660
Cs       4.18061212       3.84399074       3.00252786       0.01624761      -0.01118558       0.00219736
Cs       3.97654479       4.64727870       8.84303384       0.00988958      -0.01108147       0.01428866
Cs       8.39625406       0.43503515       8.84137378       0.00605741      -0.00760261       0.01185688
Cs      16.38093140       7.94283597       3.00127231      -0.01723765      -0.00270802      -0.00225099
Cs      12.39991540       3.74853820       2.99303307       0.01272354       0.00595560      -0.01236138
Cs      12.25573383       4.58844976       8.85474386      -0.00923439      -0.00240189       0.00099975
Cs       0.13643114       8.80939583       8.84391719      -0.00725703      -0.00839464       0.01852766
Cs       8.18760927      16.31276021       3.00561448       0.00205714      -0.00259991       0.00102575
Cs       4.24845654      12.09038670       2.99468946      -0.01130586       0.00800960      -0.01230296
Cs       4.04513102      12.89290044       8.82633524      -0.01781431       0.01204223       0.00001554
Cs       8.29214688       8.79305857       8.83493130       0.01800070       0.00055746       0.00874579
Cs      16.27384814      16.29876569       2.99352930      -0.00970965       0.00753805      -0.01575626
Cs      12.41666268      12.14649734       2.97964287       0.00929898       0.00425475      -0.00112671
Cs      12.27206597      12.98890193       8.84223133      -0.01099631      -0.00719555       0.01287136
Pb      16.40767326       4.20881714       0.01116148      -0.01084218       0.00089268       0.00651302
Pb      16.43793466       4.18939053       5.91546496      -0.00449943       0.00194077      -0.00290972
Pb       4.11219465      16.73551412       5.91673944      -0.00312380       0.00777209       0.00221069
Pb      12.33550711      16.73592533       0.00053600       0.00551271       0.00177750       0.00006187
Pb       8.23552817       4.21664067      11.81693591      -0.00784860       0.01491458      -0.00294684
Pb       8.22313449       4.18277737       5.92276558      -0.00450790       0.00571518       0.00366456
Pb      12.33585449      16.73579697       5.91760362       0.00214804       0.00357320       0.00043130
Pb       4.11244812       8.36806601      11.83356149      -0.00161012      -0.00290659      -0.00103691
Pb      16.43842201      12.51424906       0.01881406       0.00278459      -0.00144344      -0.00181028
Pb       0.00082322      12.55187400       5.91372608       0.00071917      -0.00000990      -0.00093355
Pb       4.11141848       8.36856961       5.91717922       0.00040684      -0.01014940       0.00057578
Pb      12.33517158       8.36810501       0.00095211       0.00223578      -0.00586029      -0.00038191
Pb       8.26385858      12.52765279      11.82453134       0.01710399      -0.00499973      -0.00780686
Pb       8.23532257      12.54480159       5.91992193       0.00300624       0.00559474       0.00284849
Pb      12.33566337       8.36914333       5.91802280       0.00026998      -0.00975132       0.00148448
Br       6.42881025       1.61818116       0.37831818       0.02499997       0.01071277      -0.01340964
Br       1.69968105       6.61706344      11.44258640       0.01104352      -0.00173401       0.01380216
Br       2.53943225       2.35285616      11.46931863      -0.00175052       0.01240432       0.00422776
Br       5.79291124       5.89623869       0.37735826       0.00299257       0.00873950      -0.00357763
Br       5.80678030       5.91621943       5.54887550      -0.00654728      -0.00190168       0.00031102
Br       2.44553480       2.44514036       6.27547371       0.00297083      -0.01565967       0.00789354
Br       1.69599885       6.62867455       6.29272546       0.00967383      -0.00552081      -0.01300865
Br       6.52016797       1.70478340       5.55033318      -0.00616986       0.00542792       0.00829104
Br       3.61276593       0.08748726       2.84150678      -0.00202833      -0.00026803       0.03302411
Br       4.60005506       8.31412892       8.87718682       0.00403362       0.00436398      -0.00056077
Br       7.69082488       4.09948739       8.87825159       0.03604698      -0.00222134       0.01057800
Br       0.48717601       4.25982539       2.95672712      -0.00459223       0.00475750      -0.00463778
Br      14.75400809       1.74503744       0.38103366      -0.00024231       0.00198115      -0.00820987
Br       9.90481230       6.60920459      11.45272239       0.00351125      -0.01099938       0.00774906
Br      10.62118922       2.44695742      11.43819795       0.00631619      -0.00426005       0.00177134
Br      14.04769089       5.90050024       0.39725592      -0.00054837      -0.00327492       0.00058765
Br      14.02587353       5.90927974       5.53271987       0.00083912       0.00231048       0.00403598
Br      10.63726510       2.44786201       6.30648881       0.00795937       0.00365887      -0.00016683
Br       9.92217407       6.61642612       6.30029912       0.01503988       0.00161732      -0.01042306
Br      14.74973723       1.74025070       5.55639412      -0.01833025       0.00442837       0.02114093
Br      11.86227780       0.06907219       2.95804646      -0.03277051       0.00270681      -0.00284704
Br      12.83324713       8.28592699       8.88972728       0.00467409       0.00593895       0.01023911
Br      15.98216680       4.09027844       8.88819539      -0.00344957      -0.00400552       0.01212832
Br       8.68436948       4.22762065       2.94762489      -0.00399976      -0.00699114      -0.01758161
Br       6.52548756      10.11979444       0.39470269      -0.00994770       0.00062287      -0.01684939
Br       1.79031243      15.12187954      11.45715972      -0.01454330      -0.02466875       0.01152141
Br       2.42894871      10.83442711      11.44115025       0.00570335       0.01184918       0.00557816
Br       5.68038651      14.38868569       0.36599772       0.01777102      -0.03257730       0.01367304
Br       5.78022363      14.29281340       5.56174449      -0.00409289       0.00558572      -0.01581967
Br       2.41675832      10.81853118       6.28505205       0.00917501       0.00428937      -0.00025954
Br       1.70398514      15.02976838       6.28559704       0.00857892      -0.00734182      -0.01305718
Br       6.52646079      10.10658083       5.54455001      -0.00965236       0.01253252       0.01145440
Br       3.62581111       8.42268996       2.95773958      -0.01422742      -0.00223398      -0.00427839
Br       4.60216434      16.64872142       8.99224679       0.01674814      -0.00074500      -0.02540280
Br       7.73974316      12.47876703       8.87805359      -0.00109055      -0.00858183       0.00781296
Br       0.53169989      12.63299931       2.95638900      -0.03684984       0.00065090      -0.00480825
Br      14.76951339      10.12461933       0.38281988      -0.01134456       0.01153658      -0.00252160
Br       9.91624690      14.99351983      11.45697474      -0.00037129      -0.00224717       0.01067832
Br      10.62266706      10.83817252      11.43742467      -0.00015034       0.01105218       0.00201146
Br      14.05138444      14.28768340       0.39642606      -0.01399304       0.00379461       0.00202309
Br      14.03489736      14.28661496       5.52699741      -0.01264003      -0.01046687      -0.00224131
Br      10.64659157      10.82797813       6.30579553      -0.00001348       0.00498064      -0.00600452
Br       9.92253116      14.99533371       6.27852400       0.01618855      -0.00632796      -0.02036320
Br      14.74750228      10.11872248       5.53648001      -0.01068624      -0.00560170       0.01434888
Br      11.83545337       8.44673728       2.94974958      -0.01721810       0.00088386      -0.01237771
Br      12.81032760      16.66716075       8.87738386       0.03066332      -0.00526649      -0.00050814
Br      15.98620065      12.50833731       8.88724269       0.01213702       0.00317207       0.00633376
Br       8.69001145      12.64516054       2.94718369       0.00265315       0.00154439      -0.01457104
80
Lattice="16.4479299 0.0 0.0 0.0 16.73625353 0.0 0.0 0.0 11.83475491" Properties=species:S:1:pos:R:3:REF_forces:R:3 REF_energy=-343.10170266 config_weight=1.0 pbc="T T T"
Bi       4.11138525       0.00008736       0.00029977      -0.00012820      -0.00034144       0.01584945
Cs       0.10634935       0.50844906       8.91662543       0.08877063      -0.00023535       0.03346153
Cs       8.11014199       7.89334703       2.98222758       0.01863755       0.00114904      -0.02263945
Cs       4.15123941       3.75626667       2.90536594      -0.00853477      -0.12130186      -0.04985889
Cs       3.97642900       4.67536246       8.82218822      -0.00153400      -0.06331611       0.00883062
Cs       8.36765785       0.42198137       8.89382021      -0.10455588       0.00405617       0.02622098
Cs      16.33205703       7.91180160       2.95688026      -0.01485860      -0.00809090      -0.01893359
Cs      12.42761585       3.72173626       2.96936758      -0.00200602      -0.00301951      -0.00882571
Cs      12.21926269       4.61742909       8.88433903      -0.00083688      -0.00923244       0.02451422
Cs       0.11447249       8.83388984       8.84745507      -0.02018468      -0.00275497       0.02360233
Cs       8.11826578      16.22840715       2.91814416      -0.08898323       0.00043227      -0.03261130
Cs       4.24952335      12.05887736       3.01290492       0.00348915       0.05732055      -0.00540801
Cs       4.07263491      12.98269629       8.92632200       0.01030933       0.11785175       0.04668707
Cs       8.33825191       8.82426783       8.87723155       0.01599955       0.00903107       0.02154094
Cs      16.30244335      16.31165946       2.94252458       0.10228570      -0.00052006      -0.02975938
Cs      12.45345999      12.11877323       2.94980793      -0.00150033       0.00621754      -0.02924778
Cs      12.24438887      13.01461585       8.86568947       0.00034190       0.00176531       0.01003840
Pb      16.40130347       4.26296980      11.80204874       0.23405502      -0.13862311      -0.04806745
Pb      16.42745124       4.19565525       5.90309847       0.12835384      -0.09321027      -0.00187476
Pb       4.10992764      16.73533002       5.91594001      -0.00039030       0.00634033       0.00119039
Pb      12.33718497      16.73564667       0.00031516      -0.00232542       0.00110971       0.00049252
Pb       8.21484490       4.20743305      11.82253186      -0.18672116      -0.28471774       0.03476067
Pb       8.21424209       4.17436774       5.91684702      -0.09589309      -0.11688199      -0.01235754
Pb      12.33630435      16.73586408       5.91783510       0.00050767       0.00462717      -0.00064248
Pb       4.11164365       8.36791773      11.83438093       0.00120728       0.00280076      -0.00108946
Pb       0.01250980      12.52774451       0.01179168       0.18040837       0.28550180      -0.03320577
Pb       0.00897004      12.55985150       5.91846531       0.09390648       0.11750922       0.01343565
Pb       4.11132604       8.36890600       5.91719709       0.00460102      -0.00649628       0.00010637
Pb      12.33709237       8.36717397       0.00052913      -0.00878926       0.01254933      -0.00030715
Pb       8.26917439      12.47492606       0.03272582      -0.21840834       0.12578204       0.05084131
Pb       8.24442996      12.54031075       5.93244298      -0.12904395       0.08947855      -0.00121106
Pb      12.33523260       8.36779104       5.91780587      -0.00286311       0.00016852       0.00075947
Br       6.44903890       1.63667338       0.37534765       0.42515116       0.42665194       0.01180064
Br       1.60423322       6.76086819      11.46209919       0.02767837       0.05913052       0.01955331
Br       2.30687595       2.74655443      11.34432042      -0.21395346       0.10818165       0.05184002
Br       5.76664373       5.87918294       0.38206767      -0.03931641       0.04861502      -0.01802600
Br       5.77304938       5.88523996       5.49748615      -0.00987118       0.03809199       0.00756794
Br       2.44823785       2.46154859       6.26828338      -0.14411191       0.14838976       0.02133875
Br       1.67402853       6.65962724       6.30496745       0.02929868       0.02384153      -0.02125745
Br       6.54601540       1.68647327       5.52809225       0.11905961       0.14102608       0.00546389
Br       3.64691512       0.03505074       2.87784019      -0.05180371       0.03861685       0.59240065
Br       4.62622569       8.30726772       8.87434127      -0.01061190      -0.01110883      -0.02525141
Br       7.68087832       4.08302612       8.87529681       0.03470239       0.01830597      -0.05030765
Br       0.48837506       4.26403707       2.95632474      -0.01417625       0.01931212       0.03924788
Br      14.76066753       1.72428465       0.37461449      -0.06180807      -0.01713942      -0.00145005
Br       9.85814590       6.62552796      11.45156484       0.08354774       0.12496415      -0.01870607
Br      10.61473653       2.44480865      11.42984203       0.05990685      -0.01836018       0.00337440
Br      13.86985933       5.90249922       0.46872517      -0.06964747       0.07950675       0.00737953
Br      14.00611727       5.90085538       5.49780036      -0.05121761       0.06614958      -0.01400988
Br      10.64828422       2.46250523       6.31949331       0.03198018       0.00054799       0.00177684
Br       9.89989798       6.63265677       6.31399252       0.04636915       0.04441304      -0.01183094
Br      14.76607956       1.72168133       5.52658249      -0.05450187       0.00910148       0.00433339
Br      11.82111176       0.06433483       2.96003907       0.02354683       0.01504589       0.03032623
Br      12.87381167       8.24370644       8.87110103       0.00004061      -0.01188214      -0.03756829
Br      15.86282637       4.15690714       8.84195368      -0.03374789       0.01990158      -0.04899026
Br       8.71014915       4.23519816       2.95096430       0.01488344       0.02287233       0.03725547
Br       6.61754926       9.97668474       0.37466716      -0.03473008      -0.05835273      -0.01217732
Br       1.77416517      15.10134114      11.46236381      -0.42090293      -0.42399674      -0.02238358
Br       2.45514796      10.85533688      11.44324453       0.03581456      -0.05519669       0.00441419
Br       5.91837654      13.99082176       0.49162400       0.20597935      -0.09815004      -0.04609232
Br       5.77423132      14.27367533       5.56626158       0.13980542      -0.14620009      -0.02018587
Br       2.45077067      10.84940020       6.33757599       0.00392606      -0.03709261      -0.00558790
Br       1.67651480      15.04673744       6.31030753      -0.12484585      -0.14626309      -0.00468594
Br       6.55011011      10.07536588       5.52884150      -0.02700327      -0.01999007       0.01862748
Br       3.59721276       8.42867886       2.96006996       0.01096073       0.01204653       0.02698430
Br       4.56939694      16.70936339       8.96718409       0.06811455      -0.04065066      -0.60380509
Br       7.73501849      12.47293713       8.87947956       0.01525768      -0.01508680      -0.04290032
Br       0.54544181      12.65157186       2.95981469      -0.02560355      -0.01976413       0.05316765
Br      14.81032515      10.11401742       0.38809629      -0.09523510      -0.12000798       0.02850396
Br       9.91124442      15.01157608      11.46106601       0.06133714       0.02210481       0.00228583
Br      10.80000585      10.83492769      11.36532675       0.07917875      -0.09102061      -0.01218298
Br      14.05867350      14.29200219       0.40367000      -0.05485310       0.01530708      -0.00529016
Br      14.02517762      14.27547431       5.50903687      -0.02764333      -0.00240665      -0.00329587
Br      10.66357932      10.83490208       6.33946434       0.05028166      -0.06368230       0.01487521
Br       9.90855946      15.01298025       6.31011403       0.03825429      -0.00381600      -0.01063627
Br      14.76869396      10.10020482       5.52414950      -0.03825013      -0.03895543       0.01401029
Br      11.79766162       8.48940703       2.96500789       0.00682512       0.00586087       0.03964347
Br      12.85281162      16.67103017       8.87463299      -0.01731804      -0.01457495      -0.02829902
Br      15.96069073      12.49959932       8.88404470      -0.01756760      -0.02775658      -0.04127832
Br       8.80996834      12.57957133       2.99294312       0.03150412      -0.02147991       0.05373550
80
Lattice="16.4479299 0.0 0.0 0.0 16.73625353 0.0 0.0 0.0 11.83475491" Properties=species:S:1:pos:R:3:REF_forces:R:3 REF_energy=-343.20684561 config_weight=1.0 pbc="T T T"
Bi       4.11137900       0.00007096       0.00106442       0.00374462       0.00130078       0.00658367
Cs       0.11063190       0.50843768       8.91823969       0.07573011       0.00210646       0.02968561
Cs       8.11104103       7.89340243       2.98113535       0.02490658      -0.00001462      -0.02062492
Cs       4.15082772       3.75041484       2.90296064      -0.00729292      -0.09849484      -0.04259139
Cs       3.97635498       4.67230793       8.82261428       0.00242669      -0.05512375       0.01315991
Cs       8.36261376       0.42217718       8.89508511      -0.09564234       0.00254557       0.02284197
Cs      16.33134023       7.91141131       2.95596685      -0.02212492      -0.00308652      -0.01823583
Cs      12.42751897       3.72159049       2.96894177       0.00055295       0.00719443      -0.00904510
Cs      12.21922239       4.61698373       8.88552168      -0.00322345       0.00043109       0.02425629
Cs       0.11349861       8.83375695       8.84859369      -0.02813379      -0.00009463       0.02734200
Cs       8.11397304      16.22842790       2.91657085      -0.07213637      -0.00221296      -0.02824167
Cs       4.24969178      12.06164269       3.01264409      -0.00015820       0.05086233      -0.00628829
Cs       4.07313230      12.98838177       8.92857439       0.00748908       0.09681692       0.04725618
Cs       8.33902381       8.82470364       8.87827076       0.02204184       0.00185180       0.02260066
Cs      16.30737790      16.31163436       2.94108891       0.09258252      -0.00327111      -0.02664601
Cs      12.45338762      12.11907331       2.94839687       0.00287530      -0.00489260      -0.02871956
Cs      12.24440532      13.01470087       8.86617375      -0.00057987      -0.00796604       0.00979057
Pb      16.41259498       4.25628232      11.79972983       0.13312865      -0.06785556      -0.03728156
Pb      16.43364339       4.19115855       5.90300805       0.08095187      -0.05659280      -0.00470713
Pb       4.10990872      16.73563579       5.91599752       0.00081885       0.00283871       0.00441366
Pb      12.33707279      16.73570023       0.00033883      -0.00146330       0.00146730       0.00038530
Pb       8.20583703       4.19369761      11.82420884      -0.13779979      -0.21937242       0.03380573
Pb       8.20961594       4.16872896       5.91625079      -0.05655801      -0.07476388      -0.01056706
Pb      12.33632885      16.73608734       5.91780410       0.00052942       0.00277258      -0.00039776
Pb       4.11170187       8.36805279      11.83432839       0.00120723       0.00031489      -0.00081653
Pb       0.02121322      12.54151794       0.01018972       0.13072494       0.21738087      -0.03257245
Pb       0.01350030      12.56552041       5.91911350       0.05478511       0.07486476       0.01124677
Pb       4.11154809       8.36859253       5.91720218       0.00260039      -0.00551082      -0.00002189
Pb      12.33666834       8.36777932       0.00051434      -0.00562735       0.00850059      -0.00015488
Pb       8.25863784      12.48099412       0.03517857      -0.12812177       0.06415122       0.03954875
Pb       8.23820458      12.54462737       5.93238452      -0.08128381       0.05397447       0.00290500
Pb      12.33509444       8.36779907       5.91784256      -0.00062844      -0.00080189       0.00101807
Br       6.46954930       1.65725613       0.37591702       0.33214342       0.35801438       0.01937051
Br       1.60556846       6.76372088      11.46304254       0.02191644       0.05434061       0.01945572
Br       2.29655422       2.75177347      11.34682134      -0.15958817       0.08486854       0.03803175
Br       5.76474695       5.88152819       0.38119805      -0.03919747       0.03740725      -0.01602542
Br       5.77257304       5.88707760       5.49785125      -0.00049879       0.02139815       0.00567576
Br       2.44128548       2.46870735       6.26931277      -0.09909225       0.11719938       0.01306659
Br       1.67544206       6.66077736       6.30394197       0.01551608       0.00225789      -0.01180775
Br       6.55175918       1.69327673       5.52835592       0.08185866       0.11503876      -0.00272485
Br       3.64441586       0.03691382       2.90641911      -0.05746349       0.02606907       0.45354482
Br       4.62571383       8.30673166       8.87312300      -0.01250239      -0.00591992      -0.01484342
Br       7.68255255       4.08390929       8.87286985       0.02830695       0.01305518      -0.04391953
Br       0.48769115       4.26496878       2.95821818      -0.00281924       0.01804679       0.02934944
Br      14.75768569       1.72345772       0.37454455      -0.04318711      -0.01123458      -0.00507907
Br       9.86217647       6.63155653      11.45066244       0.06151895       0.08877893      -0.01650172
Br      10.61762660       2.44392297      11.43000475       0.05097443      -0.01315897       0.00345726
Br      13.86649951       5.90633483       0.46908116      -0.04745657       0.04190911       0.01121200
Br      14.00364646       5.90404665       5.49712448      -0.03226341       0.04361986      -0.02152527
Br      10.64982704       2.46253168       6.31957912       0.03036743      -0.00028017       0.00573715
Br       9.90213490       6.63479935       6.31342185       0.02080683       0.02739843      -0.01339431
Br      14.76345019       1.72212049       5.52679161      -0.03176743       0.00177860       0.00250862
Br      11.82224765       0.06506068       2.96150209       0.02046631       0.01459423       0.01563368
Br      12.87381365       8.24313323       8.86928866       0.00256402      -0.01081737      -0.03215773
Br      15.86119836       4.15786730       8.83959028      -0.02672975       0.01551982      -0.03587473
Br       8.71086710       4.23630158       2.95276165       0.01794834       0.01975909       0.02910004
Br       6.61587387       9.97386954       0.37407968      -0.02798587      -0.05103097      -0.00762152
Br       1.75385971      15.08088643      11.46128401      -0.33646238      -0.35452249      -0.01833332
Br       2.45687581      10.85267415      11.44345756       0.03599260      -0.04129984       0.01065387
Br       5.92831356      13.98608674       0.48940049       0.14954933      -0.07979471      -0.03892869
Br       5.78097596      14.26662234       5.56528782       0.10594041      -0.11459715      -0.00968084
Br       2.45096015      10.84761076       6.33730639      -0.00164852      -0.01983360      -0.00165711
Br       1.67049189      15.03968127       6.31008149      -0.08657649      -0.09911036      -0.00110672
Br       6.54880744      10.07440154       5.52974012      -0.01276520      -0.00689658       0.00656623
Br       3.59774157       8.42925995       2.96137167       0.01299700       0.00723364       0.01616922
Br       4.57268291      16.70740224       8.93805485       0.05059667      -0.03320268      -0.47733872
Br       7.73575470      12.47220927       8.87740990      -0.00022939      -0.01362517      -0.02682440
Br       0.54420674      12.65061840       2.96237963      -0.02237320      -0.01723475       0.05121356
Br      14.80573075      10.10822801       0.38947149      -0.05276653      -0.08687801       0.01273794
Br       9.91420341      15.01264251      11.46117631       0.04753046       0.01863785       0.00378218
Br      10.80382555      10.83053677      11.36473904       0.05220524      -0.04835337      -0.01257856
Br      14.05602736      14.29274060       0.40341484      -0.05413009       0.01206850      -0.00443173
Br      14.02384402      14.27535816       5.50887781      -0.02424857      -0.00354717      -0.00297532
Br      10.66600506      10.83182998       6.34018200       0.03344780      -0.04374891       0.01665573
Br       9.91040492      15.01279615       6.30960088       0.03215103      -0.00346065      -0.00941514
Br      14.76684866      10.09832551       5.52482538      -0.02095078      -0.01661531       0.00738118
Br      11.79799090       8.48968971       2.96692039       0.00236233       0.00392491       0.04231303
Br      12.85197622      16.67032692       8.87326774      -0.01782318      -0.01505505      -0.02282645
Br      15.95984334      12.49826025       8.88205327      -0.01922222      -0.02208473      -0.03429395
Br       8.81148813      12.57853519       2.99553541       0.02626591      -0.01993677       0.03832186
80
Lattice="16.4479299 0.0 0.0 0.0 16.73625353 0.0 0.0 0.0 11.83475491" Properties=species:S:1:pos:R:3:REF_forces:R:3 REF_energy=-343.328325 config_weight=1.0 pbc="T T T"
Bi       4.11136683       0.00003849       0.00257370       0.00473312       0.00250054      -0.01337090
Cs       0.11908532       0.50841525       8.92142608       0.04972490       0.01297420       0.02758794
Cs       8.11281593       7.89351189       2.97897941       0.04079659      -0.00131052      -0.01958248
Cs       4.15001486       3.73886347       2.89821266      -0.00214430      -0.05252460      -0.02210914
Cs       3.97620893       4.66627836       8.82345513       0.01238330      -0.03263546       0.00674449
Cs       8.35265717       0.42256346       8.89758212      -0.07520932       0.00154811       0.01209027
Cs      16.32992521       7.91064077       2.95416383      -0.03853695       0.00638954      -0.01506285
Cs      12.42732801       3.72130296       2.96810138       0.00237585       0.02438333      -0.00967872
Cs      12.21914262       4.61610458       8.88785620      -0.01371819       0.01940622       0.03091647
Cs       0.11157651       8.83349453       8.85084123      -0.04642718       0.00689884       0.02679630
Cs       8.10549939      16.22846907       2.91346541      -0.04623426      -0.01013824      -0.02774670
Cs       4.25002403      12.06710122       3.01212904      -0.01024859       0.03297259      -0.00634384
Cs       4.07411391      12.99960460       8.93302023       0.00149604       0.05202167       0.02515566
Cs       8.34054738       8.82556355       8.88032208       0.03737392      -0.00806120       0.02017123
Cs      16.31711836      16.31158482       2.93825496       0.07308763      -0.00117238      -0.01257000
Cs      12.45324469      12.11966527       2.94561168       0.01487389      -0.02015922      -0.03106915
Cs      12.24443789      13.01486906       8.86712964      -0.00073005      -0.02302660       0.00948055
Pb      16.43488357       4.24308144      11.79515239      -0.10856189       0.10309255       0.00371660
Pb      16.44586634       4.18228231       5.90282958      -0.01909547       0.02299180      -0.00990041
Pb       4.10987155      16.73623964       5.91611078       0.00290663      -0.00209586       0.01111288
Pb      12.33685140      16.73580584       0.00038581      -0.00038214       0.00326737       0.00022876
Pb       8.18805599       4.16658437      11.82751902      -0.01876983      -0.05969368       0.02444254
Pb       8.20048421       4.15759868       5.91507406       0.02139069       0.01844151      -0.00882157
Pb      12.33637721       0.00027431       5.91774291       0.00031091      -0.00485074       0.00023614
Pb       4.11181684       8.36831957      11.83422471      -0.00103065      -0.00427992      -0.00042995
Pb       0.03839309      12.56870565       0.00702760       0.01763674       0.05956092      -0.02411116
Pb       0.02244287      12.57671060       5.92039295      -0.01726228      -0.01348392       0.00872243
Pb       4.11198626       8.36797396       5.91721236       0.00062509       0.00365486       0.00027350
Pb      12.33583130       8.36897429       0.00048511       0.00180960      -0.00713820       0.00103582
Pb       8.23783927      12.49297209       0.04002005       0.09943281      -0.09562607      -0.00022932
Pb       8.22591600      12.55314830       5.93226925       0.01917271      -0.02005378       0.01062287
Pb      12.33482173       8.36781514       5.91791487       0.00239739      -0.00164573       0.00172998
Br       6.51003555       1.69788539       0.37704073       0.13173757       0.19768915      -0.01005305
Br       1.60820424       6.76935180      11.46490450       0.01075656       0.01015998       0.00551778
Br       2.27617984       2.76207530      11.35175797       0.03609868      -0.01658475      -0.00001097
Br       5.76100291       5.88615777       0.37948142      -0.03993465       0.00805072      -0.00653143
Br       5.77163304       5.89070501       5.49857187      -0.00605168      -0.00329162      -0.00377389
Br       2.42756198       2.48283827       6.27134491      -0.01964696       0.03902069       0.01581205
Br       1.67823212       6.66304780       6.30191764       0.00772050      -0.01859751      -0.00068930