96
Lattice="9.588 0.0 0.0 0.0 11.07126876 0.0 0.0 0.0 10.384" Properties=species:S:1:pos:R:3:REF_forces:R:3 REF_energy=-811.7249754 config_weight=1.0 pbc="T T T"
Ga       1.59777625       0.92152735      10.38251924       0.00742969       0.00779795      -0.01546562
Ga       1.59837032      10.14716324       2.59455081      -0.00299327      -0.02395541      -0.04838682
Ga       3.19577043       3.68938362      10.38261644       0.03663521       0.01496755      -0.00245159
Ga       3.19632941       1.84365366       2.59457885       0.04184779       0.01299466      -0.04180474
Ga       1.59770280       0.92150189       5.19051457       0.21975555      -0.05927481       0.10787058
Ga       1.59835412      10.14716756       7.78653264      -0.01634207      -0.03638568       0.01686099
Ga       3.19574138       3.68935318       5.19059328       0.13521109      -0.06446979       0.07682537
Ga       3.19631148       1.84368067       7.78655610       0.05370205       0.00430047       0.01801546
Ga       1.59771805       6.45713095      10.38261363      -0.01144666       0.01356668      -0.00369342
Ga       1.59833532       4.61152133       2.59461716      -0.06554001      -0.02032365      -0.11951711
Ga       3.19577570       9.22499354      10.38260886       0.00817293      -0.00882295      -0.00977855
Ga       3.19636019       7.37931051       2.59467095       0.00106686      -0.01391819      -0.04103921
Ga       1.59779945       6.45713250       5.19061519      -0.09510041       0.09292778       0.03207779
Ga       1.59835834       4.61151159       7.78661093       0.09749941       0.10540815       0.04128076
Ga       3.19576171       9.22499730       5.19061166       0.03583176      -0.01115345       0.03626341
Ga       3.19635098       7.37929357       7.78666316       0.01562993      -0.01995285       0.00918330
Ga       4.79377363       0.92152879      10.38256379       0.03316640       0.01973831      -0.00038668
Ga       4.79436463      10.14714819       2.59459546       0.00122041       0.02606348      -0.02922822
Ga       6.39174633       3.68933170      10.38264561      -0.02809981      -0.01174294       0.07063945
Ga       6.39231250       1.84366916       2.59463108       0.01341147       0.14070921       0.06746283
Ga       4.79369692       0.92152425       5.19058892       0.15878359       0.05237242       0.00326106
Ga       4.79431947      10.14716380       7.78660148       0.00295655       0.01797940       0.00703250
Ga       6.39172179       3.68937454       5.19063949      -0.88411784      -0.73707076       0.52317267
Ga       6.39232631       1.84365111       7.78665797      -0.03543932       0.15003759      -0.01071751
Ga       4.79373949       6.45715907      10.38267396       0.01732250      -0.02564368      -0.01225617
Ga       4.79433529       4.61152366       2.59463554       0.12349347      -0.06239669      -0.04295483
Ga       6.39178066       9.22499066      10.38267396       0.00012106      -0.02304880      -0.01895936
Ga       6.39238192       7.37929922       2.59471654       0.03213098      -0.04871403      -0.10957970
Ga       4.79377583       6.45715409       5.19067002      -0.01483346      -0.08664408       0.06142061
Ga       4.79436597       4.61151137       7.78664852       0.13775034      -0.06121120       0.00734762
Ga       6.39175391       9.22500350       5.19068476       0.04187924       0.12862837       0.09195668
Ga       6.39235546       7.37929324       7.78673699       0.08858165      -0.06905961       0.01206157
Ga       7.98977139       0.92150742      10.38257677      -0.04292960       0.01553028      -0.00311655
Ga       7.99038512      10.14716933       2.59459930       0.00160599       0.00861643      -0.02926828
Ga       9.58775330       3.68935949      10.38259297      -0.01590894       0.01554221       0.08831843
Ga       0.00033318       1.84368100       2.59460802      -0.04985333       0.08868153      -0.19172333
Ga       7.98969545       0.92152890       5.19058923      -0.25099973       0.00820050       0.03630287
Ga       7.99034456      10.14714077       7.78663128       0.00861941      -0.01216693       0.00954545
Ga       9.58775800       3.68936248       5.19063741       0.86226289      -0.11120879       0.34146731
Ga       0.00033242       1.84364646       7.78661156      -0.06310247      -0.12542280       0.05753088
Ga       7.98976909       6.45717579      10.38264333      -0.00704223      -0.01455650      -0.02034085
Ga       7.99035530       4.61151303       2.59462983       0.11045804      -0.27926984      -0.33266008
Ga       9.58776394       9.22500295      10.38259463      -0.00902171      -0.02128153      -0.00684213
Ga       0.00036856       7.37930564       2.59467687      -0.03107229      -0.04061969       0.04975285
Ga       7.98978395       6.45715066       5.19066856       0.48634354       0.42191162       0.58902808
Ga       7.99034485       4.61152565       7.78662744      -0.23662003       0.09787402      -0.08362058
Ga       9.58777113       9.22496453       5.19064073      -0.00859285      -0.09802664       0.00781982
Ga       0.00037384       7.37928483       7.78667490      -0.10751584      -0.04115620      -0.01278863
N        1.59788363       0.92106856       1.95839374      -0.01401426      -0.00724947       0.05032121
N        1.59799313      10.14749394       9.74630288       0.00362096       0.01492427      -0.00326809
N        3.19589862       3.68877492       1.95846394      -0.03467497      -0.00767307       0.03480417
N        3.19600553       1.84415043       9.74632074      -0.02735076      -0.00904611      -0.00426751
N        1.59788536       0.92106169       7.15035584      -0.02544615       0.03769923      -0.05746839
N        1.59798603      10.14747988       4.55431825      -0.03919574       0.10892052      -0.00911396
N        3.19592336       3.68878555       7.15043808      -0.07654221      -0.01592329      -0.04617533
N        3.19593026       1.84410758       4.55432656      -0.10409093       0.00104355      -0.00251682
N        1.59792227       6.45669862       1.95846799       0.02202184      -0.00461368       0.01970998
N        1.59798354       4.61185912       9.74636726      -0.00903815      -0.00753072      -0.05801717
N        3.19593506       9.22440731       1.95846259      -0.00892825       0.00677022       0.02079248
N        3.19595634       7.37972690       9.74641108      -0.00958910       0.01235429       0.00056226
N        1.59792525       6.45668600       7.15045490       0.02129369      -0.03205631      -0.01709588
N        1.59798018       4.61185646       4.55436570      -0.15521345      -0.04202713      -0.00066432
N        3.19590764       9.22439281       7.15044338      -0.01298004       0.01154458      -0.02172353
N        3.19602518       7.37974539       4.55440319       0.00333813       0.01217294      -0.00287905
N        4.79390038       0.92104099       1.95842198      -0.04004994      -0.03533167       0.00167844
N        4.79401601      10.14750247       9.74637287      -0.00809463      -0.00794249       0.00044527
N        6.39188852       3.68876928       1.95849540      -0.21799205      -0.09214999      -0.35549337
N        6.39200070       1.84411433       9.74638034       0.01389466      -0.06791650       0.00685336
N        4.79388303       0.92106557       7.15042863      -0.04434330      -0.03886482      -0.00434832
N        4.79398552      10.14751077       4.55436207      -0.03947263      -0.10874428      -0.01037767
N        6.39190645       3.68874813       7.15048128      -0.20751825      -0.16290954       0.39041455
N        6.39191873       1.84413316       4.55435667      -0.19962003      -0.42636703       0.02187287
N        4.79393538       6.45671335       1.95853725      -0.01502460       0.03667215       0.03589350
N        4.79400642       4.61187772       9.74639706      -0.05694093       0.03464160       0.00295966
N        6.39193004       9.22439314       1.95851804      -0.00354041       0.00251870       0.03596755
N        6.39197673       7.37974495       9.74646705      -0.02886077       0.02703637       0.02609216
N        4.79393097       6.45668888       7.15051378      -0.03513592       0.04089667      -0.03318050
N        4.79397277       4.61189300       4.55437702      -0.39228571       0.12097627      -0.02962557
N        6.39188977       9.22439414       7.15052717      -0.01072307       0.01445922      -0.04309136
N        6.39200770       7.37974096       4.55444483      -0.10185770      -0.03543729      -0.10030958
N        7.98988827       0.92108517       1.95843206       0.04818133      -0.03426506       0.02364840
N        7.98997782      10.14749472       9.74639904       0.00455124       0.00184283       0.00001206
N        9.58791553       3.68877016       1.95844826       0.19290827      -0.11122889      -0.23460975
N        9.58796836       1.84411256       9.74634691       0.01874984      -0.00196942      -0.05913761
N        7.98987600       0.92104453       7.15044213       0.06888327      -0.00786610      -0.02493356
N        7.98998338      10.14749128       4.55437702       0.02322692      -0.00586972      -0.00318960
N        9.58791860       3.68875710       7.15049270       0.00115596      -0.02321648      -0.16279953
N        9.58793116       1.84412363       4.55434431      -0.16296122       0.20833471      -0.03147167
N        7.98992902       6.45670825       1.95850952      -0.02457322       0.20686641      -0.14901116
N        7.98994043       4.61188525       9.74639821       0.04809917      -0.00405883      -0.01605156
N        9.58794094       9.22439657       1.95843580       0.00785648       0.02378820       0.00461795
N        9.58796702       7.37975325       9.74639924       0.03964058       0.01747018       0.02664960
N        7.98992278       6.45671390       7.15050568       0.02609326       0.24366417       0.27020165
N        9.58791179       9.22438428       7.15048315       0.02246479       0.04215088      -0.00846402
N        0.00001103       7.37971749       4.55440174       0.13006073       0.25008324      -0.01100606
C        7.91327996       4.61186476       4.55441762       0.61369935       0.49707558      -0.64912459
96
Lattice="9.588 0.0 0.0 0.0 11.07126876 0.0 0.0 0.0 10.384" Properties=species:S:1:pos:R:3:REF_forces:R:3 REF_energy=-811.82927738 config_weight=1.0 pbc="T T T"
Ga       1.59813465       0.92190355      10.38177315      -0.01156928      -0.01346517       0.04551162
Ga       1.59822593      10.14600762       2.59221649      -0.01398402       0.01871278       0.03496576
Ga       3.19753779       3.69010569      10.38249827      -0.04748890      -0.00726167       0.02191214
Ga       3.19834826       1.84428051       2.59256207      -0.05844798      -0.02694834      -0.00834815
Ga       1.60830445       0.91864229       5.19571851      -0.16558134       0.00750252      -0.06622003
Ga       1.59756570      10.14541221       7.78734602       0.02154977       0.02810987      -0.00490299
Ga       3.20226429       3.68624304       5.19429954      -0.22089632      -0.02749687      -0.03034332
Ga       3.19890226       1.84388815       7.78742525      -0.07358618      -0.02108158       0.01804347
Ga       1.59716578       6.45778538      10.38243544       0.00268206      -0.00144393       0.00789841
Ga       1.59517349       4.61054086       2.58885134       0.03525292       0.02251660       0.01744116
Ga       3.19616996       9.22456796      10.38213711      -0.00919261       0.01140615       0.02532376
Ga       3.19641168       7.37863904       2.59269114       0.01409979       0.02063359       0.04595517
Ga       1.59321150       6.46161559       5.19216272       0.07820340       0.02272454      -0.05558665
Ga       1.60306192       4.61659674       7.78860248      -0.06991529      -0.03466314       0.02797308
Ga       3.19749033       9.22445924       5.19236105      -0.05290634       0.00216203      -0.05171175
Ga       3.19710499       7.37833093       7.78710625      -0.01679995       0.04970711       0.01367278
Ga       4.79537367       0.92248103      10.38254520      -0.02028479      -0.02747250       0.01364545
Ga       4.79442350      10.14840555       2.59318542       0.00416352      -0.05090309       0.02841970
Ga       6.39039078       3.68876518       0.00205354      -0.03941387      -0.03295371      -0.20508524
Ga       6.39295950       1.85045740       2.59788573      -0.02072772      -0.07985179      -0.10822267
Ga       4.80135706       0.92405083       5.19074624      -0.31367030      -0.31263516      -0.00234691
Ga       4.79446214      10.14803112       7.78694073      -0.01323166      -0.04710628       0.01565461
Ga       6.34906957       3.65381629       5.21587873       0.59766153       0.32050170      -0.25852965
Ga       6.39061658       1.85088929       7.78614095       0.02596114      -0.31195503       0.18680805
Ga       4.79457518       6.45592186      10.38208270      -0.02815591       0.03831826       0.04207256
Ga       4.80029299       4.60851349       2.59256331      -0.06710099       0.07433901      -0.04723566
Ga       6.39178651       9.22387877      10.38175924       0.00011348       0.02133571       0.05191551
Ga       6.39393201       7.37694912       2.58943004       0.03887971      -0.00620692       0.03875990
Ga       4.79306018       6.45297413       5.19363309       0.01637055       0.13990653      -0.04894005
Ga       4.80101142       4.60855844       7.78700303      -0.26323839       0.12048738       0.12766796
Ga       6.39377429       9.23120884       5.19512102      -0.03689374      -0.08307792      -0.10180123
Ga       6.39662893       7.37596157       7.78731891      -0.17155424       0.15456878       0.07791365
Ga       7.98770038       0.92225662      10.38242651       0.03126290      -0.02811237       0.00210687
Ga       7.99046268      10.14758495       2.59318729       0.00459464      -0.05084652       0.01919023
Ga       9.58698578       3.69010923       0.00285363       0.06885207      -0.03297861      -0.19695523
Ga       9.58592813       1.84795928       2.58535879       0.05882630      -0.06232297       0.07810145
Ga       7.97758658       0.92192448       5.19234060       0.19934659      -0.04146320      -0.00645320
Ga       7.99076039      10.14655388       7.78709182      -0.01084028       0.00018713       0.00973249
Ga       0.04135592       3.68399745       5.20711069       0.06239139      -0.18752974       0.17846127
Ga       9.58528813       1.83759568       7.78938699       0.03605202       0.05195498      -0.03273303
Ga       7.98942939       6.45647354      10.38166204       0.02306651       0.07914317       0.02034259
Ga       7.99568412       4.59804029       2.57858136      -0.01764066       0.13892294      -0.31530544
Ga       9.58732874       9.22397631      10.38226463       0.00844467       0.00565701       0.03313968
Ga       9.58686957       7.37734603       2.59707703      -0.05914477       0.00150662      -0.04793187
Ga       8.01324646       6.47750475       5.21908490       0.04128368       0.11044253      -0.08904789
Ga       7.97892966       4.61624733       7.78259336       0.14278618      -0.04470175      -0.05096357
Ga       9.58735655       9.22023555       5.19101799       0.07696074       0.22599187      -0.01286462
Ga       9.58318692       7.37729931       7.78605798       0.20590950       0.13152110       0.17064050
N        1.59720758       0.92071882       1.96082131       0.01022673       0.02492983      -0.04271113
N        1.59816782      10.14821391       9.74614525      -0.00241911      -0.00068168      -0.00556197
N        3.19422580       3.68840481       1.96014303       0.03426381       0.02524151      -0.01009782
N        3.19468603       1.84371400       9.74611493       0.04281149       0.02175692      -0.00684394
N        1.59665781       0.92288037       7.14758331       0.03804167      -0.00951048       0.08357892
N        1.59609518      10.15273453       4.55387849       0.01839162      -0.01825492       0.01169181
N        3.19223083       3.68801732       7.14821040       0.10405170       0.01176169       0.03436192
N        3.19090864       1.84415795       4.55420517       0.14994231       0.03170637      -0.00190990
N        1.59898462       6.45647609       1.95941885      -0.03491420      -0.02070181       0.00152650
N        1.59754748       4.61149587       9.74356836       0.01653316       0.00960707       0.02136605
N        3.19550427       9.22473391       1.95946568       0.00677718      -0.01293013      -0.03918333
N        3.19549382       7.38032287       9.74643818       0.01172628      -0.02116493      -0.00835014
N        1.59895250       6.45513956       7.14963020      -0.05912881       0.05004820      -0.00242780
N        1.59049234       4.60982898       4.55433372       0.26329872       0.15842314      -0.11299137
N        3.19528144       9.22494969       7.14939542       0.00801778      -0.01415533       0.04426308
N        3.19618617       7.38033272       4.55426425      -0.04337846      -0.04869874       0.01776018
N        4.79196830       0.91933646       1.95850298       0.06936045       0.06088297       0.01455784
N        4.79362549      10.14711940       9.74639436       0.00763841       0.01681919      -0.01192840
N        6.38137202       3.68432372       1.94134550       0.00488771      -0.07419541      -0.02573324
N        6.39267100       1.84083790       9.74671097      -0.00720059       0.03671018      -0.03786303
N        4.79174375       0.91919065       7.15021887       0.06438025       0.07244691      -0.01468237
N        4.79208135      10.14226465       4.55386146       0.00651676       0.07325003       0.01993608
N        6.38189524       3.68088886       7.16931598      -0.06410995       0.01870454       0.07033417
N        6.38228854       1.82356418       4.55541189      -0.11678188      -0.05080229      -0.04160436
N        4.79321062       6.45848253       1.96026888      -0.00259695      -0.08132341      -0.04069001
N        4.79125937       4.61354893       9.74653984       0.03439019      -0.01136481      -0.03987765
N        6.39175928       9.22451470       1.96025320      -0.00937017       0.03599478      -0.05042168
N        6.39058436       7.38104926       9.74772580      -0.00956180      -0.03353413      -0.06269523
N        4.79223590       6.45866178       7.14891309       0.08749162      -0.09909253       0.05592499
N        4.77504788       4.61772922       4.55294787       0.02069818      -0.13991979       0.00626348
N        6.39137240       9.22509163       7.14844830       0.02135516      -0.02077079       0.07315995
N        6.38709376       7.37803145       4.54960557       0.14940493      -0.03879343       0.13506023
N        7.99221269       0.91943211       1.95957284      -0.09267370       0.08186866       0.00053584
N        7.99019729      10.14758362       9.74639956      -0.00504687       0.00482155      -0.01030069
N        0.00922203       3.68340425       1.94713001       0.05742773      -0.04001286      -0.16376964
N        0.00087289       1.84401746       9.74349390      -0.03563336       0.00201642       0.02967642
N        7.99319910       0.92066512       7.14923935      -0.14780345       0.02953965       0.01134809
N        7.99110393      10.14720808       4.55422313       0.00555776       0.03625069       0.00918448
N        9.58797430       3.68763702       7.14263887      -0.04891990       0.06455358       0.26182318
N        9.58006948       1.85417424       4.55282607      -0.03127558      -0.03039925      -0.04053972
N        7.98874356       6.46668800       1.95132078       0.04336657      -0.08907658      -0.18743483
N        7.99226091       4.61168951       9.74562387      -0.06571147      -0.02594095      -0.07556715
N        0.00031995       9.22554422       1.95865853       0.00018868      -0.02519505      -0.00799105
N        0.00187944       7.38059600       9.74768489      -0.00221494      -0.01248835      -0.06172450
N        7.99118159       6.46846893       7.16354092      -0.02999821      -0.03442684       0.21411817
N        0.00099552       9.22641774       7.15007474      -0.03412124      -0.06388478       0.01476376
N        0.00628551       7.39178219       4.55387080       0.15081453       0.16263439       0.03468029
C        7.94288645       4.63584502       4.52310218      -0.57715029      -0.27843063       0.32524483
96
Lattice="9.588 0.0 0.0 0.0 11.07126876 0.0 0.0 0.0 10.384" Properties=species:S:1:pos:R:3:REF_forces:R:3 REF_energy=-811.84113292 config_weight=1.0 pbc="T T T"
Ga       1.59804596       0.92181044      10.38195788      -0.00715529      -0.00829325       0.03001839
Ga       1.59826169      10.14629370       2.59279446      -0.01157880       0.00760355       0.01368220
Ga       3.19710019       3.68992700      10.38252755      -0.02631957      -0.00141130       0.01541480
Ga       3.19784834       1.84412529       2.59306143      -0.03295105      -0.01738917      -0.01726183
Ga       1.60567954       0.91935030       5.19443006      -0.07062685      -0.00815346      -0.02261336
Ga       1.59776091      10.14584687       7.78714467       0.01210169       0.01223468       0.00065369
Ga       3.20064929       3.68701315       5.19338180      -0.13203484      -0.03735689      -0.00249602
Ga       3.19826072       1.84383678       7.78720999      -0.04203713      -0.01496069       0.01805604
Ga       1.59730250       6.45762340      10.38247957      -0.00113409       0.00238422       0.00484472
Ga       1.59595635       4.61078366       2.59027894       0.01137169       0.01271315      -0.01823762
Ga       3.19607236       9.22467335      10.38225393      -0.00486038       0.00637373       0.01654687
Ga       3.19639892       7.37880533       2.59318126       0.01097287       0.01201431       0.02362799
Ga       1.59434748       6.46050559       5.19177955       0.03476940       0.04169999      -0.03304472
Ga       1.60189736       4.61533771       7.78810934      -0.03088237      -0.00173291       0.03111390
Ga       3.19706232       9.22459253       5.19192794      -0.03104436      -0.00085141      -0.02961403
Ga       3.19691831       7.37856929       7.78699649      -0.00897115       0.03263553       0.01287464
Ga       4.79497750       0.92224521      10.38254977      -0.00662901      -0.01564990       0.01015705
Ga       4.79440893      10.14809423       2.59353453       0.00368316      -0.03165063       0.01338063
Ga       6.39072636       3.68890545       0.00120974      -0.03705365      -0.02795896      -0.13196749
Ga       6.39279929       1.84877667       2.59707994      -0.01295760      -0.02435840      -0.06617634
Ga       4.79946046       0.92342530       5.19070730      -0.19175348      -0.21960650      -0.00257386
Ga       4.79442676      10.14781645       7.78685683      -0.00931536      -0.03078115       0.01379678
Ga       6.35962999       3.66262027       5.20962964       0.29377139       0.08257243      -0.08431554
Ga       6.39103989       1.84909718       7.78626899       0.01065983      -0.19475297       0.13697245
Ga       4.79436828       6.45622820      10.38222911      -0.01647938       0.02238437       0.02861853
Ga       4.79881787       4.60925881       2.59307638      -0.01796178       0.03995248      -0.04884612
Ga       6.39178507       9.22415400      10.38198571       0.00025508       0.00990455       0.03445511
Ga       6.39354821       7.37753103       2.59073895       0.03990992      -0.01846479      -0.00126771
Ga       4.79323737       6.45400908       5.19289946       0.00638475       0.08395141      -0.02087864
Ga       4.79936612       4.60928959       7.78691529      -0.16235545       0.07363501       0.09787548
Ga       6.39327409       9.22967248       5.19402260      -0.01672507      -0.02882744      -0.05252791
Ga       6.39557079       7.37678649       7.78717478      -0.10680260       0.09936053       0.06260226
Ga       7.98821315       0.92207117      10.38246369       0.01276753      -0.01713304       0.00059242
Ga       7.99044341      10.14748209       2.59353692       0.00395470      -0.03637399       0.00659262
Ga       9.58717582       3.68992357       0.00179872       0.04703651      -0.02069447      -0.12712145
Ga       9.58652364       1.84689998       2.58764888       0.03176414      -0.02612560       0.00924462
Ga       7.98058465       0.92182661       5.19190696       0.08502951      -0.02994934       0.00450991
Ga       7.99065742      10.14669913       7.78697780      -0.00586173      -0.00261372       0.00993411
Ga       0.03105649       3.68532578       5.20303207       0.25894303      -0.16115699       0.23418511
Ga       9.58604194       1.83909385       7.78869978       0.01154099       0.01070442      -0.01006774
Ga       7.98951347       6.45664747      10.38190503       0.01555391       0.05686912       0.01418344
Ga       7.99436471       4.60137607       2.58255490       0.00430291       0.04804515      -0.31337601
Ga       9.58743651       9.22423050      10.38234635       0.00395787      -0.00138354       0.02338294
Ga       9.58724073       7.37783128       2.59648275      -0.05432754      -0.00937217      -0.02565997
Ga       8.00743728       6.47246521       5.21204912       0.15787305       0.19668034       0.08039629
Ga       7.98175601       4.61507831       7.78359220       0.05143742      -0.01178194      -0.05907170
Ga       9.58745924       9.22140644       5.19092463       0.05563880       0.14379200      -0.00811937
Ga       9.58447123       7.37779087       7.78621073       0.12780153       0.08850736       0.12496585
N        1.59737499       0.92080539       1.96022029       0.00408528       0.01751609      -0.01901130
N        1.59812448      10.14803566       9.74618429      -0.00076002       0.00336647      -0.00501728
N        3.19464001       3.68849648       1.95972725       0.01636075       0.01727209       0.00185425
N        3.19501279       1.84382205       9.74616592       0.02529023       0.01416853      -0.00614121
N        1.59696175       0.92243010       7.14826980       0.02250143       0.00167714       0.04763137
N        1.59656337      10.15143354       4.55398741       0.00392690       0.01430459       0.00672422
N        3.19314505       3.68820752       7.14876200       0.05992022       0.00562796       0.01361373
N        3.19215202       1.84414544       4.55423518       0.08628203       0.02394020      -0.00166394
N        1.59872162       6.45653111       1.95918344      -0.02037115      -0.01712440       0.00665797
N        1.59765544       4.61158577       9.74426128       0.01053741       0.00526076       0.00260540
N        3.19561098       9.22465309       1.95921730       0.00275498      -0.00801128      -0.02402536
N        3.19560830       7.38017529       9.74643143       0.00647628      -0.01286586      -0.00625245
N        1.59869823       6.45552241       7.14983435      -0.03912656       0.02972869      -0.00649244
N        1.59234628       4.61033095       4.55434161       0.15384517       0.10482693      -0.08347330
N        3.19543648       9.22481186       7.14965481       0.00290251      -0.00796437       0.02758924
N        3.19614628       7.38018725       4.55429862      -0.03141717      -0.03401045       0.01280792
N        4.79244665       0.91975849       1.95848294       0.04199537       0.03682415       0.01174371
N        4.79372214      10.14721417       9.74638896       0.00363321       0.01071454      -0.00895955
N        6.38397583       3.68542443       1.94559172      -0.05125692      -0.07971484      -0.11320022
N        6.39250503       1.84164909       9.74662904      -0.00194181       0.01047061      -0.02740629
N        4.79227339       0.91965487       7.15027079       0.03736223       0.04478269      -0.01214112
N        4.79255279      10.14356364       4.55398544      -0.00500751       0.02748284       0.01273894
N        6.38437393       3.68283475       7.16465263      -0.10201882      -0.02653514       0.14934932
N        6.38467288       1.82865696       4.55515063      -0.14057238      -0.14505841      -0.02306266
N        4.79339001       6.45804444       1.95984013      -0.00633649      -0.05190992      -0.02095199
N        4.79193954       4.61313519       9.74650443       0.01119565       0.00008186      -0.02983758
N        6.39180156       9.22448459       1.95982362      -0.00841997       0.02802920      -0.02836318
N        6.39092915       7.38072631       9.74741418      -0.01473861      -0.01828553      -0.04213003
N        4.79265567       6.45817331       7.14930944       0.05735428      -0.06463951       0.03284771
N        4.77973354       4.61628419       4.55330165      -0.07879336      -0.07337547      -0.00184721
N        6.39150050       9.22491903       7.14896303       0.01346119      -0.01258852       0.04345704
N        6.38831047       7.37845470       4.55080378       0.09014605      -0.04417248       0.07798848
N        7.99163721       0.91984142       1.95929040      -0.05735833       0.05333613       0.00699972
N        7.99014302      10.14756159       9.74639945      -0.00271284       0.00414892      -0.00784564
N        0.00691774       3.68473280       1.94993234       0.09155579      -0.05843576      -0.17859030
N        0.00064901       1.84404104       9.74420033      -0.02198726       0.00081194       0.00865677
N        7.99237635       0.92075901       7.14953716      -0.09426466       0.02035004       0.00209931
N        7.99082645      10.14727816       4.55426124       0.01016715       0.02577433       0.00627048
N        9.58796050       3.68791436       7.14458348      -0.03352808       0.04174844       0.15499377
N        9.58201594       1.85168575       4.55320197      -0.06408174       0.03031475      -0.03931444
N        7.98903705       6.46421712       1.95310070       0.02671383      -0.01649769      -0.18205736