240
Lattice="6.213707 10.76047 0.000172 -11.181453 6.454461 -0.00052 0.000312 -0.000594 13.149972" Properties=species:S:1:pos:R:3:REF_forces:R:3 REF_energy=-2681.25153204 config_weight=1.0 pbc="T T T"
B        0.00249592       1.43244528       1.63751209       0.01026941       0.00604780       0.00053498
B        0.00235726       1.43213470       8.21305643       0.01207224       0.00500071      -0.00304570
B       -3.72451448       3.58424538       1.63734389       0.01147116       0.01584058       0.00354429
B       -3.72442202       3.58365319       8.21291770       0.00849167       0.01391226      -0.00166374
B       -7.45165275       5.73525759       1.63733678      -0.00870337       0.01175065      -0.00221631
B       -7.45165251       5.73527302       8.21267650      -0.00739986       0.00940526      -0.00007128
B        1.24515595       3.58457647       1.63805710       0.00758597       0.00012567      -0.00006661
B        1.24515501       3.58430953       8.21267398       0.00818280      -0.00018064       0.00246437
B       -2.48176525       5.73697458       1.63818070       0.00270627      -0.00670751      -0.00645480
B       -2.48162162       5.73558888       8.21279167      -0.00054549       0.01895379      -0.02305485
B       -6.20922007       7.88725434       1.63725032       0.00955399       0.01299162      -0.00253823
B       -6.20900746       7.88697042       8.21241319       0.00677413       0.01459522       0.00427267
B        2.48750008       5.73671085       1.63783940       0.01017343      -0.01221373       0.00046500
B        2.48752891       5.73633044       8.21307209       0.01099266      -0.01083294      -0.00187298
B       -1.23958121       7.88820135       1.64278036      -0.01123971      -0.01399155       0.04387878
B       -1.23877348       7.88786938       8.21146768      -0.02590578      -0.00314753      -0.06945217
B       -4.96688823      10.03960410       1.63795403       0.01163760      -0.00677922      -0.00716928
B       -4.96605676      10.03884547       8.21227823      -0.00775169       0.00517893       0.02976527
B        3.73032763       7.88893160       1.63767037       0.00817107      -0.01709263      -0.00001693
B        3.73027937       7.88829324       8.21299472       0.00953103      -0.01468844       0.00098332
B        0.00220283      10.03896797       1.63628011       0.00181284       0.00787650       0.00195261
B        0.00307798      10.03921714       8.21497864      -0.02032941      -0.00595020      -0.01522099
B       -3.72380171      12.19178184       1.63672855      -0.02055593      -0.00969578       0.00155901
B       -3.72330356      12.19144855       8.21333017      -0.02886955      -0.00417809       0.01601072
B        4.97325398      10.04097823       1.63781550       0.01038278      -0.00671535       0.00066230
B        4.97319907      10.04036163       8.21345887       0.00884783      -0.00504486      -0.00388278
B        1.24655568      12.19243178       1.63668093      -0.00752627      -0.00039451       0.01162419
B        1.24634577      12.19180691       8.21350752      -0.00287301       0.00474375      -0.00770287
B       -2.48074832      14.34358398       1.63713669      -0.02033148       0.01031412      -0.00795016
B       -2.48066460      14.34363886       8.21291681      -0.01929676       0.00548132       0.00673079
B       -1.23974241       3.58464995       1.63805541       0.01250760       0.00794636       0.00199373
B       -1.23973057       3.58418984       8.21256590       0.01392784       0.00366034       0.00132866
B       -4.96655064       5.73565387       1.63764474       0.00201167       0.01750174       0.00069760
B       -4.96646705       5.73526739       8.21249989       0.00276230       0.02008089      -0.00099035
B       -8.69398275       7.88698549       1.63739236       0.00247831       0.00857740      -0.00229348
B       -8.69399183       7.88691435       8.21225356       0.00352555       0.00645493       0.00176638
B        0.00262361       5.73693741       1.63760061       0.00630719      -0.02425650      -0.00132892
B        0.00258488       5.73675654       8.21266353       0.00924614      -0.01985135      -0.01479105
B       -3.72313150       7.88664127       1.63831103      -0.01740799       0.02360454      -0.01086140
B       -3.72365026       7.88716766       8.21254587      -0.00146204       0.00217086       0.00602781
B       -7.45166210      10.03927229       1.63762439       0.01106859      -0.00068970      -0.00571230
B       -7.45140081      10.03889816       8.21249809       0.01237622       0.00058663       0.00094525
B        1.24454908       7.88785101       1.63828197       0.01706266      -0.01857410      -0.02300323
B        1.24442454       7.88797037       8.21183369       0.01668840      -0.02620451       0.01142500
B       -2.47998854      10.03873391       1.63752660      -0.04849052       0.00392021      -0.04483496
B       -2.48086051      10.03890868       8.21118809      -0.01968189      -0.00476545       0.05425260
B       -6.20898605      12.19159728       1.63745009       0.00463954      -0.01047190      -0.00677309
B       -6.20869580      12.19105821       8.21278300       0.00677677      -0.01168682       0.00190820
B        2.48806176      10.04049538       1.63720220       0.01351968      -0.01100430       0.00359542
B        2.48772563      10.03979736       8.21291288       0.02093234      -0.00637867       0.00428758
B       -1.23864513      12.19183207       1.63624265      -0.02199120       0.00079207       0.01399115
B       -1.23839930      12.19153392       8.21414361      -0.02256388       0.00421817       0.00470216
B       -4.96595139      14.34349948       1.63738996      -0.00804468      -0.00406843      -0.00871387
B       -4.96585420      14.34309337       8.21278860      -0.00772696      -0.00457535       0.00509878
B        3.73104522      12.19290316       1.63788030       0.01881740       0.00494098      -0.00013065
B        3.73110805      12.19232448       8.21326619       0.01510327       0.00440699      -0.00426934
B        0.00433173      14.34403602       1.63766162      -0.00933937       0.01399883      -0.00342725
B        0.00447997      14.34385540       8.21310392      -0.01090723       0.01158712      -0.00094565
B       -3.72302389      16.49541359       1.63744462      -0.00459311       0.00496031      -0.00344431
B       -3.72309265      16.49533356       8.21260366      -0.00388931       0.00280739       0.00291043
B       -9.94199203       7.16938297       4.93780663       0.00053976      -0.00977185      -0.00180411
B       -9.94176953       7.16848059      11.51245876       0.00264560       0.00353793       0.00182763
B       -2.48836951       2.86529416       4.93815788      -0.05254722      -0.14272844       0.00683000
B       -2.48717357       2.86532541      11.51315772       0.00873592       0.00801677       0.00024504
B       -6.21300158       5.01910720       4.93793361       0.01631595       0.15205067       0.00008158
B       -6.21452662       5.01704570      11.51264551       0.00180400       0.00912999       0.00090761
B       -8.69936104       9.32009865       4.93804801       0.17239103      -0.04015345       0.01092327
B       -8.69898132       9.32055029      11.51272013      -0.00208692       0.00417177      -0.00035483
B       -1.24612065       5.01019177       4.93848227      -0.04684232       0.15934034       0.04910250
B       -1.24452422       5.01744485      11.51332954       0.00370645       0.00529870      -0.00244704
B       -4.97759872       7.16929149       4.93929652      -0.29819649       0.01798269       0.02922763
B       -4.97183204       7.16887733      11.51299761       0.00196346       0.00694259      -0.00126913
B       -7.45991441      11.47507118       4.93748603      -0.03115204       0.00823731       0.01197934
B       -7.45612456      11.47254613      11.51265630      -0.00502260       0.00023988       0.00167028
B        0.02355825       7.16099179       4.88453862      -0.27502832       0.36217562       0.19234177
B       -0.00198223       7.16967764      11.51310251      -0.00281111      -0.00769097      -0.00009666
B       -3.71977789       9.31332938       4.94083321       0.43200076       0.00732716       0.55416553
B       -3.72901116       9.32089964      11.51251627      -0.00519098      -0.00287540       0.00179767
B       -6.21374984      13.62508240       4.93821833      -0.16085532       0.00548296       0.01274533
B       -6.21364486      13.62475776      11.51281522      -0.00094060      -0.00497421       0.00021428
B        1.22712735       9.31843060       4.90770464      -0.32875293       0.27155155       0.32942176
B        1.24047813       9.32190432      11.51302933       0.00251000      -0.01453404       0.00046239
B       -2.50315109      11.50357088       4.96376412       0.52783415      -0.40858331       0.18754923
B       -2.48640811      11.47322184      11.51289243      -0.00975183      -0.00688998       0.00047363
B       -4.97288935      15.77967551       4.93809509      -0.10811582       0.12567274       0.00583037
B       -4.97087971      15.77675040      11.51267617       0.00214967      -0.00220882       0.00065113
B        2.47748348      11.47312400       4.93684903      -0.07730602       0.21041717      -0.07304972
B        2.48348394      11.47375502      11.51291764       0.00863655      -0.00283379       0.00162118
B       -1.25002275      13.65615044       4.93679141       0.01483639      -0.22523742      -0.05709808
B       -1.24356604      13.62541713      11.51282190      -0.00546904       0.00226965       0.00167187
B       -0.00233495       2.86638306       4.93773407       0.03378602      -0.12454281      -0.00375327
B       -0.00238639       2.86581225      11.51301173       0.00402362       0.00544326       0.00072768
B       -3.72891579       5.01466736       4.94061816      -0.18123047      -0.01215184       0.07489386
B       -3.72950902       5.01723495      11.51296793       0.00714826       0.01003403      -0.00044745
B       -7.45733091       7.16941761       4.93747561       0.01670087       0.03858608      -0.00255551
B       -7.45680709       7.16872535      11.51272779       0.00121457       0.00697929       0.00070497
B        1.24122115       5.01143808       4.93992542       0.11506205       0.01217734      -0.01751686
B        1.24032075       5.01792775      11.51300576      -0.00287627       0.00004550       0.00145289
B       -2.51246012       7.16444795       4.96268452       0.00097338       0.41494289      -0.56864511
B       -2.48683961       7.16918801      11.51303047       0.00106253       0.00042582       0.00020933
B       -6.21262298       9.31922530       4.93487105       0.16861089       0.07350004      -0.06432694
B       -6.21388227       9.32051505      11.51268488      -0.00392744       0.00467560       0.00135368
B        2.47193075       7.18160202       4.93980045       0.71994165      -0.30458058      -0.03352085
B        2.48280060       7.17012566      11.51339204      -0.00039343      -0.00872160      -0.00064523
B       -1.24436883       9.32140408      11.51304289      -0.00535303      -0.01225002       0.00064799
B       -4.98111486      11.47110828       4.93734496       0.04519653      -0.02099712      -0.06621981
B       -4.97113979      11.47271445      11.51278108      -0.00787524      -0.00166817       0.00115851
B        3.71525487       9.32385263       4.93707412       0.11160727      -0.01375570      -0.03785081
B        3.72540398       9.32206562      11.51314595       0.00746322      -0.00862417       0.00155635
B       -0.02722032      11.51724848       4.91716617      -0.00884978      -0.66263504       0.31055007
B       -0.00161374      11.47365473      11.51318092      -0.00218064      -0.00797385      -0.00118388
B       -3.73532942      13.64375696       4.93573294      -0.00823149      -0.36861353      -0.01940740
B       -3.72854363      13.62494266      11.51262730      -0.00584159      -0.00202605       0.00236604
B        4.96769385      11.47480325       4.93841815      -0.06168281      -0.02592324       0.01004100
B        4.96848250      11.47402670      11.51337354       0.00866678       0.00096523      -0.00002673
B       -4.96993900       2.87330587       4.93616193      -0.11496401      -0.05981225      -0.04519495
B        1.24147861      13.62568863      11.51280834       0.00410439       0.00614443       0.00261380
B       -2.48651316      15.77977207       4.93796456      -0.06364466       0.27910876       0.01108366
B       -2.48572942      15.77707856      11.51286040      -0.00144102       0.00421938       0.00052589
C       -1.24912790       9.33282013       4.99578828       0.78275836       0.02612764      -1.04629873
C       -1.24316461       7.96754347       4.85684430      -0.23351899      -0.10063287       0.88320421
N       -0.00278535       1.43105424       4.93788396      -0.03733106      -0.02432518       0.00064100
N       -0.00269612       1.43125374      11.51291664      -0.00584941      -0.00420018       0.00336435
N       -3.73087609       3.58164268       4.93699958       0.00739290      -0.02968087       0.00246106
N       -3.72953697       3.58264004      11.51299120      -0.00858165      -0.00787746       0.00217794
N       -7.45738993       5.73442757       4.93774202       0.02793799       0.02810583       0.00209508
N       -7.45699282       5.73421506      11.51275920       0.00344929      -0.00712063       0.00226011
N        1.24319552       3.57832353       4.93928679      -0.04805415       0.00503631       0.01876472
N        1.24001869       3.58324227      11.51350544      -0.00258871      -0.00479298       0.00029028
N       -2.49541518       5.72019081       4.95574304       0.17979882       0.38572899       0.02960250
N       -2.48699428       5.73442836      11.51342758      -0.00608283      -0.00278899       0.00132180
N       -6.21435153       7.88888246       4.93674059      -0.26851052      -0.13510415      -0.00082066
N       -6.21434209       7.88592867      11.51330855       0.00134201      -0.00350296      -0.00003294
N        2.48219549       5.74147851       4.93823397      -0.15449948      -0.03637004       0.02005368
N        2.48286467       5.73540948      11.51325936      -0.00043068       0.00373765       0.00240515
N       -1.24440775       7.88673961      11.51277910       0.00254812       0.00790483       0.00203916
N       -4.95901922      10.03555819       4.92333984       0.01072003       0.24723879       0.01609613
N       -4.97146047      10.03814548      11.51276317       0.00360377       0.00082546       0.00217172
N        3.72391542       7.88924215       4.93910575      -0.06442072       0.04635502       0.02296141
N        3.72537376       7.88751834      11.51391285      -0.00058455       0.00809964      -0.00114886
N       -0.03716949      10.05653865       4.94202230      -0.76709872      -0.12381929       0.12550452
N       -0.00188187      10.03913905      11.51373083       0.00724329       0.00761145      -0.00089292
N       -3.75010383      12.20259000       4.93354040       0.48946587      -0.25876417       0.07772886
N       -3.72881092      12.19044959      11.51332817       0.00856353       0.00126322      -0.00151734
N        4.96288274      10.03927624       4.93906203      -0.06261947       0.06895589       0.00855592
N        4.96802070      10.03927892      11.51365532      -0.00458242       0.00400990      -0.00042374
N        1.23278743      12.20081876       4.92827462      -0.12150179      -0.28109174      -0.04799809
N        1.24100382      12.19092840      11.51315679      -0.00100101      -0.00205066       0.00105310
N       -2.49165990      14.35216455       4.93872040      -0.10767382       0.14848799       0.01045150
N       -2.48615064      14.34235742      11.51308497       0.00694631      -0.00338254      -0.00044893
N       -1.24662976       3.57513963       4.93742657       0.04350479       0.09863057      -0.00423428
N       -1.24460274       3.58282174      11.51347076      -0.00910161      -0.00563630       0.00122317
N       -4.97296286       5.73711406       4.93942832      -0.01762920      -0.13874402      -0.01315703
N       -4.97217611       5.73448785      11.51302730      -0.00306559      -0.00771759       0.00167263
N       -8.69876952       7.88605419       4.93813587      -0.01698426      -0.03754449      -0.00236479
N       -8.69921168       7.88596604      11.51291736       0.00089808      -0.00641655       0.00028957
N        0.00271833       5.71488507       4.93540245       0.01215488       0.54603601      -0.15758910
N       -0.00200608       5.73477692      11.51315589      -0.00325973       0.00203119       0.00278764
N       -3.75121670       7.88894588       4.94958469       0.16939781      -0.05484154       0.05186437
N       -3.72960839       7.88631310      11.51296202       0.00001392       0.00034211       0.00136992
N       -7.45264331      10.03897195       4.93841578      -0.11487883       0.00652594      -0.00043805
N       -7.45635404      10.03775119      11.51284999       0.00045615      -0.00209160       0.00090446
N        1.24448897       7.89799443       4.92829875       0.40494011      -0.25936440      -0.16443436
N        1.24064141       7.88727806      11.51355427       0.00168546       0.01062412       0.00133285
N       -2.43419514      10.04424925       5.05212673      -0.86306768       0.17548896      -0.57128440
N       -2.48689237      10.03887225      11.51316316       0.00848199       0.00529147       0.00251245
N       -6.21561231      12.18767094       4.93915152      -0.10167780       0.17127697       0.00606253
N       -6.21348736      12.19011246      11.51320130       0.00240712       0.00347919      -0.00010468
N        2.46626644      10.04340503       4.92743866       0.01327444      -0.08172041      -0.06080153
N        2.48316344      10.03906787      11.51285122      -0.00253969       0.00818753       0.00385246
N       -1.27216577      12.22854118       4.93090817       0.47709036      -0.44966789      -0.02309615
N       -1.24424942      12.19089826      11.51330420       0.00944892      -0.00065544       0.00176687
N       -4.97506844      14.34819711       4.93799713      -0.04687930      -0.00077600      -0.00957121
N       -4.97102599      14.34199137      11.51255571       0.00265714       0.00296350       0.00314030
N        3.72149319      12.18912995       4.94030156      -0.02903797      -0.00410110       0.01648448
N        3.72623928      12.19111513      11.51380784      -0.00946115      -0.00209077      -0.00074083
N       -0.00026835      14.34674435       4.93787923      -0.02602579       0.21549713       0.00494834
N       -0.00121621      14.34298565      11.51311954       0.00131677      -0.00813854       0.00036793
N       -3.72859416      16.49431619       4.93829776      -0.06964888       0.09189504      -0.00111866
N       -3.72822904      16.49419934      11.51316463       0.00040127      -0.00262149       0.00002111
N       -9.93624064       7.16938930       1.63670247      -0.00554324       0.00153554       0.00232615
N       -9.93629208       7.16929483       8.21199577      -0.00420314      -0.00049707      -0.00103678
N       -2.48220118       2.86689997       1.63815332      -0.01262594      -0.00561196      -0.00556926
N       -2.48211306       2.86634375       8.21230390      -0.01342085      -0.00432103       0.00189469
N       -6.20952174       5.01829489       1.63793212       0.00420414      -0.01517475      -0.00256546
N       -6.20952740       5.01815407       8.21211004       0.00579517      -0.01567172      -0.00024069
N       -8.69358486       9.32141935       1.63780859      -0.00897328      -0.00199784      -0.00206662
N       -8.69348468       9.32126020       8.21175955      -0.00851129      -0.00351022      -0.00038250
N       -1.23969617       5.01860404       1.63739727      -0.00219043       0.00599428       0.00017123
N       -1.23952951       5.01794105       8.21262694      -0.00312005       0.01191460       0.01181973
N       -4.96699649       7.17052946       1.63719473       0.00363128      -0.02193990       0.00567235
N       -4.96688393       7.17021249       8.21206370       0.00213978      -0.02355435      -0.00036815
N       -7.45081418      11.47387883       1.63722730      -0.01166440       0.00407258       0.00230122
N       -7.45062979      11.47346858       8.21249524      -0.01272796       0.00546779      -0.00204074
N        0.00349516       7.17038015       1.63504734      -0.01016365       0.02708096      -0.02307037
N        0.00332749       7.17031849       8.21423434      -0.00540249       0.02152943       0.03268291
N       -3.72431150       9.32277219       1.63874348       0.02604647      -0.00967773       0.03316770
N       -3.72448596       9.32237870       8.21421865       0.02824052      -0.00823472      -0.02247193
N       -6.20809753      13.62605986       1.63710416      -0.00529897       0.01022902       0.00546478
N       -6.20797321      13.62552777       8.21209884      -0.00436126       0.01097928      -0.00307243
N        1.24590709       9.32311286       1.63868047      -0.01517820       0.00847900       0.00511943
N        1.24594269       9.32288785       8.21220064      -0.01421408       0.00500964       0.00073641
N       -2.48167664      11.47446358       1.63823281       0.03299943       0.00406125       0.02193876
N       -2.48152467      11.47472529       8.21310809       0.03369647       0.00147700      -0.02336744
N       -4.96549025      15.77768705       1.63841411      -0.00431115       0.00804180      -0.00375315
N       -4.96542695      15.77730499       8.21240045      -0.00482210       0.00821617      -0.00310397
N        2.48865572      11.47514402       1.63830578      -0.01666514      -0.00364216      -0.01198245
N        2.48866447      11.47461095       8.21241362      -0.01782595      -0.00286461      -0.00327548
N       -1.23878692      13.62635717       1.63870538       0.01754464      -0.00127446      -0.01035694
N       -1.23868487      13.62627258       8.21183499       0.01704846      -0.00140839      -0.00061052
N        0.00291481       2.86685512       1.63768031      -0.01264071       0.00198371      -0.00178237
N        0.00289632       2.86652498       8.21255505      -0.01095398      -0.00025066      -0.00175390
N       -3.72446879       5.01858472       1.63699964       0.00026724      -0.01238154       0.00348715
N       -3.72452363       5.01793107       8.21266483       0.00241421      -0.01043612       0.00861747
N       -7.45168651       7.16993878       1.63700330      -0.00133289      -0.00999318       0.00191755
N       -7.45161255       7.16991251       8.21232620      -0.00279887      -0.01207929      -0.00415395
N        1.24564993       5.01878934       1.63700514      -0.01588800       0.00882783      -0.00123392
N        1.24564075       5.01846513       8.21321802      -0.01734652       0.00988903      -0.00179079
N       -2.48247738       7.17026625       1.63431723       0.02941885      -0.00313870      -0.02581959
N       -2.48224224       7.16998157       8.21255627       0.02775511      -0.00666301       0.03761479
N       -6.20918444       9.32220494       1.63671131      -0.00818375      -0.01074387       0.00559685
N       -6.20873125       9.32189275       8.21244213      -0.01537644      -0.01175880      -0.01334350
N        2.48843248       7.17139472       1.63777317      -0.02180179       0.01718570       0.00241228
N        2.48833317       7.17099588       8.21278704      -0.02197699       0.01799003      -0.01160700
N       -1.23934939       9.32361502       1.63405010       0.03329851      -0.00703090      -0.03121888
N       -1.23924511       9.32342673       8.21509758       0.03546378      -0.01040087       0.04503348
N       -4.96630866      11.47454085       1.63791553       0.00366230       0.00947106       0.00002114
N       -4.96582557      11.47393770       8.21213938      -0.00162808       0.01565627      -0.01783398
N        3.73103040       9.32331517       1.63736507      -0.02189246       0.01500922      -0.00132119
N        3.73093752       9.32269612       8.21252964      -0.01971209       0.01746525      -0.00463059
N        0.00350930      11.47477702       1.63908926       0.01431925      -0.00564439      -0.00421610
N        0.00355821      11.47460720       8.21131534       0.01601569      -0.00406525       0.00491762
N       -3.72361728      13.62615357       1.63684205       0.01331412       0.00693816       0.00766709
N       -3.72341438      13.62587426       8.21176835       0.01146573       0.01140292      -0.00684764
N        4.97371173      11.47540583       1.63738053      -0.01525699       0.00260374       0.00102663
N        4.97371928      11.47482951       8.21282467      -0.01455459       0.00439907       0.00238336
N        1.24658966      13.62688731       1.63746507      -0.00325422      -0.01054480      -0.00522977
N        1.24664640      13.62642695       8.21232917      -0.00345092      -0.00924123      -0.00063287
N       -2.48075911      15.77809451       1.63705622       0.00719660      -0.00248373       0.00564683
N       -2.48075816      15.77816333       8.21223722       0.00757096      -0.00542801      -0.00386660
240
Lattice="6.213707 10.76047 0.000172 -11.181453 6.454461 -0.00052 0.000312 -0.000594 13.149972" Properties=species:S:1:pos:R:3:REF_forces:R:3 REF_energy=-2681.27943552 config_weight=1.0 pbc="T T T"
B        0.00239908       1.43224221       1.63750907       0.02253616       0.03020778       0.00090952
B        0.00227281       1.43194328       8.21303907       0.02449179       0.02796938      -0.00304648
B       -3.72476451       3.58401998       1.63738097       0.04193147       0.04450015       0.00137845
B       -3.72466910       3.58346955       8.21288889       0.03794101       0.03909059       0.00066108
B       -7.45157620       5.73519059       1.63731101      -0.01960675       0.02203639      -0.00115479
B       -7.45155259       5.73520027       8.21268571      -0.01944984       0.01905151      -0.00094458
B        1.24520717       3.58438478       1.63807210       0.00327652       0.02197367      -0.00034017
B        1.24519999       3.58412589       8.21268042       0.00441729       0.02077744       0.00229579
B       -2.48203718       5.73681476       1.63821856       0.03405966       0.00739932      -0.01007479
B       -2.48189369       5.73566689       8.21265700       0.03020881       0.02110857      -0.02141346
B       -6.20923504       7.88722739       1.63720245       0.01433067       0.01821353       0.00007800
B       -6.20902434       7.88691459       8.21246342       0.01062369       0.02233797       0.00187795
B        2.48769775       5.73672372       1.63784454      -0.00959430      -0.01803578       0.00089640
B        2.48770493       5.73635178       8.21305816      -0.00710715      -0.01668897      -0.00233993
B       -1.23963312       7.88848137       1.64344009      -0.00733021      -0.04953873       0.01722364
B       -1.23891684       7.88820208       8.21094838      -0.01835993      -0.04075980      -0.05608151
B       -4.96690133      10.03959072       1.63775192       0.01733370      -0.00827693       0.00621059
B       -4.96619621      10.03887144       8.21253964       0.00175416       0.00430404       0.01843060
B        3.73044623       7.88912355       1.63763671      -0.00316831      -0.04276534       0.00248179
B        3.73039705       7.88849418       8.21303614      -0.00107918      -0.04019828      -0.00184334
B        0.00243428      10.03946766       1.63636678      -0.02026383      -0.04148413      -0.00919405
B        0.00311819      10.03953540       8.21489106      -0.03199345      -0.04439831      -0.00692489
B       -3.72366554      12.19174786       1.63664979      -0.04097270      -0.00784068       0.00822803
B       -3.72320903      12.19148236       8.21349441      -0.04854356      -0.00580696       0.00892604
B        4.97320587      10.04101677       1.63780577       0.01831174      -0.01217983       0.00125627
B        4.97313128      10.04042186       8.21345373       0.01793788      -0.01123388      -0.00463560
B        1.24641055      12.19235472       1.63667566       0.00511242       0.00735581       0.01189280
B        1.24621292      12.19176868       8.21349199       0.00947188       0.01109145      -0.00643864
B       -2.48052922      14.34349997       1.63707792      -0.04916382       0.02338154      -0.00630658
B       -2.48045064      14.34354620       8.21297415      -0.04756845       0.01760181       0.00466173
B       -1.23995045       3.58438108       1.63807434       0.03805259       0.04104964       0.00175519
B       -1.23993382       3.58394733       8.21255827       0.03960199       0.03346263       0.00203692
B       -4.96671749       5.73558232       1.63765289       0.02125332       0.02856759       0.00020010
B       -4.96657325       5.73521722       8.21249660       0.01764032       0.03032595      -0.00053823
B       -8.69392463       7.88687160       1.63737238      -0.00356839       0.02398853      -0.00134316
B       -8.69392227       7.88679184       8.21227342      -0.00313700       0.02177005       0.00073082
B        0.00262333       5.73685766       1.63767754       0.00747693      -0.02224518      -0.00642653
B        0.00254374       5.73678962       8.21246313       0.01421706      -0.02599083      -0.00716348
B       -3.72342043       7.88673474       1.63822804       0.01068011       0.01714494      -0.00656132
B       -3.72373262       7.88703098       8.21264620       0.01370679       0.00829194      -0.00035039
B       -7.45154279      10.03919826       1.63756640       0.00062388       0.00764609      -0.00306277