96
Lattice="11.25152262 0.0 0.0 0.0 9.74410442 0.0 0.0 0.0 10.47155438" Properties=species:S:1:pos:R:3:REF_forces:R:3 REF_energy=-600.78519505 config_weight=1.0 pbc="T T T"
Zn       0.05769522       9.74352893      10.46196903       0.00826214      -0.00682797       0.01331399
Zn       5.63113110       0.00001169      10.46779143       0.00693208      -0.00141092      -0.00071185
Zn       2.81983747       1.63023223      10.45343482       0.00440305       0.00357896      -0.00616469
Zn       8.45308644       1.62274164       0.00009927       0.01061136       0.00016520       0.00325234
Zn      11.24720102       3.24444280       0.00433952       0.00502221      -0.00065162       0.00462234
Zn       5.63128243       3.25011689      10.46628091       0.00586449       0.00269452      -0.00034110
Zn       2.81286074       4.87251457      10.46807741       0.00523126       0.00002095       0.00083400
Zn       8.44123015       4.87264231      10.46912037       0.00457028       0.00255751       0.00726048
Zn      11.24754419       6.50201608       0.00476539       0.00164476      -0.00321331      -0.00067864
Zn       5.63199927       6.49451975      10.46643253       0.00331662       0.00059318      -0.00079266
Zn       2.81913684       8.11439906      10.45386541       0.00923089       0.00153056      -0.00764927
Zn       8.45334107       8.12221705      10.47132390       0.00700048       0.00012480       0.00070787
Zn       1.94293824       0.00598902       2.60429987       0.00511957       0.01174797      -0.00243964
Zn       7.50702861       0.00175189       2.61297230       0.00032847      -0.00006357       0.00346785
Zn       4.69496537       1.62958064       2.61365631       0.00076931       0.00182390      -0.00351408
Zn      10.31745845       1.63926871       2.64131315       0.00941878       0.00544533       0.00930888
Zn       1.85963849       3.25759355       2.61329169      -0.00375090      -0.00096486      -0.00349732
Zn       7.49402995       3.25137973       2.61661442       0.00355040      -0.00343895       0.00353645
Zn       4.68112285       4.87279763       2.61647797      -0.00371884      -0.00010622      -0.00259261
Zn      10.29874717       4.87607945       2.62142096      -0.00348724      -0.00961634       0.00350031
Zn       1.85915974       6.49109664       2.61342970      -0.00043293       0.00082863      -0.00214145
Zn       7.49250390       6.49488554       2.61679714      -0.00041320      -0.00094095       0.00141873
Zn       4.69305622       8.11683099       2.61348709       0.00254603       0.00220930      -0.00346095
Zn      10.31175247       8.11386645       2.63464298      -0.00389806      -0.00393892      -0.00656216
Zn      11.22727728       0.00154171       5.21732170       0.00162362       0.00022740      -0.00600698
Zn       5.62648028       9.74386442       5.23248410      -0.00363796       0.00117399      -0.00208054
Zn       2.80776976       1.62689731       5.22666945      -0.00513301       0.00039667      -0.00536874
Zn       8.42837405       1.62738997       5.23989167      -0.00083157      -0.00109048       0.00042786
Zn       0.00183659       3.25730337       5.24381044      -0.00405109      -0.00541408       0.00206392
Zn       5.62249499       3.24779906       5.23436939      -0.00092656       0.00279073       0.00034122
Zn       2.81440929       4.87244646       5.23354968      -0.00738833       0.00066157      -0.00018424
Zn       8.43732396       4.87251106       5.23491852      -0.00827586       0.00030428       0.00469387
Zn       0.00165904       6.49076593       5.24220589      -0.00689752      -0.00000162       0.00110031
Zn       5.62313048       6.49703168       5.23412017      -0.00566584      -0.00201762       0.00320440
Zn       2.80745708       8.11805349       5.22635509      -0.00482404       0.00197093      -0.00480928
Zn       8.43019455       8.11774021       5.23851194      -0.00617789       0.00376691       0.00477027
Zn       1.87436280       0.00042475       7.82783581      -0.00174183       0.00101040      -0.00866493
Zn       7.49727410       0.00030938       7.85683207      -0.00083157      -0.00206841       0.00494497
Zn       4.68554087       1.62409178       7.84952209      -0.00124865      -0.00014262      -0.00332397
Zn      10.31133403       1.62268366       7.84562363       0.00006835      -0.00325464       0.00519262
Zn       1.87243181       3.24933776       7.85280984      -0.00346582       0.00047810       0.00076273
Zn       7.49787718       3.24899330       7.85384139      -0.00146292      -0.00228316       0.00382534
Zn       4.68529188       4.87273069       7.85103020      -0.00230801       0.00182563       0.00300245
Zn      10.30960635       4.87298151       7.85648232      -0.00372088       0.00218328       0.00506038
Zn       1.87206940       6.49577284       7.85240941      -0.00411968       0.00147482      -0.00041366
Zn       7.49833568       6.49618765       7.85347395      -0.00252522       0.00491641       0.00246432
Zn       4.68510645       8.12048601       7.84978429      -0.00035972      -0.00020716      -0.00334740
Zn      10.31166617       8.12293616       7.84509042      -0.00342834       0.00169768       0.00381628
O        5.62135589       0.00093865       1.98823152      -0.00196997       0.00153556       0.00037612
O        2.81007014       1.63283186       1.97802406       0.00644072       0.00172080      -0.00934658
O        8.43473859       1.63385255       1.99205636       0.01381224      -0.00904534       0.00479424
O       11.24267386       3.27022960       1.99157561      -0.00328173      -0.00344210       0.00339002
O        5.61897327       3.25147883       1.98533393      -0.00040548      -0.00095573      -0.00007505
O        2.80946942       4.87450237       1.98636549      -0.00052964       0.00077552       0.00109135
O        8.42633561       4.87322218       1.98734552      -0.00039850       0.00325787       0.00812300
O       11.24232979       6.48106324       1.99181551      -0.00564361       0.00280370       0.00396138
O        5.61702833       6.49485280       1.98525812      -0.00095734       0.00177238       0.00162159
O        2.80651106       8.11854401       1.97881193      -0.00917911       0.00916101      -0.00561074
O        8.42910979       8.11231996       1.99086155       0.00104037      -0.00381591       0.00407934
O        1.85879857       0.00068287       4.56976644       0.00254723      -0.00069703      -0.00596059
O        7.49949054       0.00060560       4.60399512      -0.00341493      -0.00044060       0.00299069
O        4.68372904       1.62157235       4.60089858      -0.00378482       0.00161579      -0.00297837
O       10.30362673       1.64553739       4.63503773      -0.00662659      -0.00048202       0.00575473
O        1.87615764       3.24977517       4.60175159      -0.00617180       0.00119474       0.00057656
O        7.49489035       3.25070066       4.60541894      -0.00131964      -0.00001764       0.00462624
O        4.68842385       4.87251194       4.60468163      -0.00621945      -0.00202014      -0.00016319
O       10.31253029       4.87340771       4.61083126      -0.01081121       0.00151590       0.00526671
O        1.87660523       6.49486274       4.60188290      -0.00973688       0.00332207      -0.00300326
O        7.49542604       6.49446255       4.60572418      -0.00208448       0.00032171       0.00210533
O        4.68331217       8.12250839       4.60053155      -0.00241378       0.00250981      -0.00293648
O       10.30455825       8.10251593       4.63163866      -0.00647057      -0.00301675      -0.00245329
O       11.25136307       0.00104379       7.21023558       0.00054348       0.00181362      -0.00404942
O        5.62168421       0.00013457       7.22249264      -0.00151324       0.00222981      -0.00452840
O        2.81155444       1.62746110       7.21128388      -0.00016363       0.00181109      -0.00580763
O        8.43138642       1.62398353       7.22899955       0.00107035       0.00147665       0.00338549
O       11.25100460       3.25155776       7.23119942      -0.00440280      -0.00145153      -0.00062787
O        5.62158801       3.24856115       7.22351759       0.00217473      -0.00126152      -0.00067921
O        2.81077696       4.87277561       7.22315350      -0.00359860      -0.00175482      -0.00226848
O        8.43454112       4.87268158       7.22506654      -0.00224505      -0.00276056       0.00271498
O       11.25095701       6.49444764       7.22995645      -0.00341442      -0.00087030      -0.00382655
O        5.62189619       6.49684216       7.22342083       0.00044666      -0.00024047      -0.00199647
O        2.81154296       8.11765408       7.21100356      -0.00231014       0.00242142      -0.00561019
O        8.43180790       8.12136600       7.22795732      -0.00160095       0.00097228       0.00059348
O        1.91459577       0.00022821       9.80675299       0.01196373       0.00117429      -0.00653498
O        7.50687412       0.00049052       9.84594121       0.00837716       0.00175720       0.00280351
O        4.69680511       1.62561469       9.83849227       0.00657720       0.00035350      -0.00242583
O       10.32771681       1.61451177       9.83362299       0.00689531      -0.00451424       0.00018933
O        1.87587523       3.24919354       9.84133016       0.00632213      -0.00221280      -0.00216091
O        7.50737470       3.24617112       9.84250235       0.00705858      -0.00187995       0.00137359
O        4.69020789       4.87257946       9.83956152       0.00526341      -0.00363715       0.00441315
O       10.31665487       4.87310701       9.84324907      -0.00042145      -0.00092043       0.00351249
O        1.87607922       6.49543599       9.84090240       0.00209734       0.00556856       0.00086090
O        7.50732070       6.49880306       9.84168881       0.00714214      -0.00036669       0.00451928
O        4.69617604       8.11826708       9.83880338       0.00683171       0.00612210       0.00001915
O       10.32696048       8.13014543       9.83127276       0.00373920      -0.00671323      -0.00243796
N       11.17206684       0.00300703       1.98035618      -0.00004451      -0.01523667      -0.01980918
96
Lattice="11.25152262 0.0 0.0 0.0 9.74410442 0.0 0.0 0.0 10.47155438" Properties=species:S:1:pos:R:3:REF_forces:R:3 REF_energy=-600.78547952 config_weight=1.0 pbc="T T T"
Zn       0.05809375       9.74319958      10.46261136       0.01647053      -0.00947545       0.00076325
Zn       5.63146549       9.74404810      10.46775708       0.00855088       0.00192869      -0.00012201
Zn       2.82004990       1.63040489      10.45313743       0.00780856      -0.00091084      -0.00927220
Zn       8.45359828       1.62274953       0.00025613       0.01035335       0.00147031       0.00534311
Zn      11.24744338       3.24441133       0.00456246       0.00611537      -0.00210267       0.00179067
Zn       5.63156530       3.25024688      10.46626436       0.00876788      -0.00094889      -0.00001146
Zn       2.81311311       4.87251554      10.46811762       0.00465548       0.00091158       0.00041765
Zn       8.44145057       4.87276567      10.46947054       0.00348242       0.00066740       0.00941940
Zn      11.24762363       6.50186105       0.00473262       0.00291362      -0.00331760       0.00321256
Zn       5.63215938       6.49454840      10.46639431       0.00552075       0.00181188       0.00043064
Zn       2.81958217       8.11447292      10.45349639       0.00803349       0.00448423      -0.00584477
Zn       8.45367872       8.12222309      10.47135814       0.00790867       0.00046256       0.00329036
Zn       1.94318521       0.00655574       2.60418217       0.00472873       0.01130676      -0.00598704
Zn       7.50704436       0.00174877       2.61313964       0.00096491      -0.00200989       0.00386156
Zn       4.69500250       1.62966863       2.61348677       0.00097963       0.00130866      -0.00303944
Zn      10.31791279       1.63953141       2.64176227       0.01363231      -0.00811064       0.00858741
Zn       1.85945757       3.25754697       2.61312299       0.00151249      -0.00105351      -0.00183469
Zn       7.49420120       3.25121389       2.61678500       0.00511788      -0.00738063       0.00364312
Zn       4.68094350       4.87279257       2.61635294      -0.00175417      -0.00106041      -0.00146769
Zn      10.29857896       4.87561553       2.62158987      -0.00277825      -0.00371320       0.00783693
Zn       1.85913881       6.49113669       2.61332645      -0.00270664       0.00573674      -0.00363130
Zn       7.49248388       6.49484013       2.61686552       0.00055705       0.00023778       0.00314729
Zn       4.69317897       8.11693759       2.61332017      -0.00276017       0.00372072      -0.00445726
Zn      10.31156434       8.11367644       2.63432642      -0.00363451      -0.00287824      -0.00366950
Zn      11.22735559       0.00155272       5.21703185       0.00023593      -0.00405823      -0.00649147
Zn       5.62630476       9.74392104       5.23238378      -0.00640083       0.00219494      -0.00355898
Zn       2.80752212       1.62691640       5.22641049      -0.00444576       0.00112970      -0.00376345
Zn       8.42833388       1.62733735       5.23991230      -0.00445943      -0.00106722       0.00424301
Zn       0.00164115       3.25704222       5.24391003      -0.00785933      -0.00152799       0.00388289
Zn       5.62245021       3.24793373       5.23438583      -0.00302863       0.00156268       0.00049042
Zn       2.81405284       4.87247842       5.23354078      -0.01018120       0.00238825      -0.00136693
Zn       8.43692476       4.87252577       5.23514492      -0.00943471       0.00137243       0.00678651
Zn       0.00132622       6.49076593       5.24225898      -0.01095162      -0.00010393      -0.00100335
Zn       5.62285718       6.49693444       5.23427473      -0.00508724      -0.00080795       0.00028110
Zn       2.80722440       8.11814859       5.22612315      -0.00484641       0.00080570      -0.00718926
Zn       8.42989649       8.11792194       5.23874211      -0.00583992      -0.00090658       0.00356311
Zn       1.87427875       0.00047347       7.82741779      -0.00151780       0.00265938      -0.00918862
Zn       7.49723393       0.00020960       7.85707061      -0.00232439       0.00062505       0.00450603
Zn       4.68548068       1.62408487       7.84936177      -0.00217146       0.00053423      -0.00206270
Zn      10.31133729       1.62252669       7.84587411       0.00002381      -0.00377856       0.00271348
Zn       1.87226462       3.24936075       7.85284660      -0.00539625      -0.00156389      -0.00193422
Zn       7.49780663       3.24888310       7.85402590      -0.00085042      -0.00134455       0.00046295
Zn       4.68518060       4.87281868       7.85117502      -0.00183115      -0.00127417       0.00093149
Zn      10.30942689       4.87308684       7.85672641      -0.00511607       0.00202795       0.00299735
Zn       1.87187059       6.49584407       7.85238941      -0.00587437       0.00266492      -0.00143784
Zn       7.49821383       6.49642482       7.85359290       0.00012984       0.00152259       0.00284607
Zn       4.68508901       8.12047607       7.84962282      -0.00113144       0.00449774      -0.00334524
Zn      10.31150077       8.12301811       7.84527451      -0.00119630       0.00111733      -0.00102719
O        5.62126093       0.00101270       1.98824963       0.00057250       0.00090743      -0.00072208
O        2.81038090       1.63291488       1.97757315       0.00295866       0.00644944      -0.00536958
O        8.43540490       1.63341611       1.99228767       0.00583627      -0.00092027       0.00377976
O       11.24251555       3.27006356       1.99173917      -0.00049550      -0.00190924      -0.00033270
O        5.61895369       3.25143274       1.98533037       0.00302930       0.00200117       0.00029639
O        2.80944388       4.87453978       1.98641816      -0.00300041      -0.00141711      -0.00094215
O        8.42631637       4.87337936       1.98773736      -0.00016149      -0.00131280       0.00413380
O       11.24205750       6.48119849       1.99200662      -0.00375826      -0.00500003       0.00034666
O        5.61698208       6.49493826       1.98533634      -0.00037590      -0.00016416      -0.00129213
O        2.80606820       8.11898590       1.97854125      -0.00203604       0.00344718      -0.00363230
O        8.42915997       8.11213589       1.99105831      -0.00364837      -0.00212900      -0.00054762
O        1.85892143       0.00064925       4.56947889      -0.00166340       0.00124061      -0.00373232
O        7.49932581       0.00058435       4.60413942      -0.00196585       0.00095578       0.00093819
O        4.68354654       1.62165030       4.60075491      -0.00247887       0.00139270      -0.00161120
O       10.30330696       1.64551410       4.63531543      -0.00184430      -0.00243089       0.00200222
O        1.87585981       3.24983276       4.60177944      -0.00558381      -0.00024408      -0.00296525
O        7.49482667       3.25069979       4.60564209      -0.00021460      -0.00159444       0.00098838
O        4.68812377       4.87241450       4.60467378      -0.00462347      -0.00078842      -0.00118179
O       10.31200878       4.87348079       4.61108530      -0.00613934      -0.00295280       0.00240878
O        1.87613548       6.49502293       4.60173798      -0.00609619       0.00136379      -0.00170705
O        7.49532556       6.49447814       4.60582576      -0.00282365       0.00162107       0.00202383
O        4.68319572       8.12262951       4.60038987      -0.00190462       0.00035795      -0.00153223
O       10.30424613       8.10237045       4.63152023      -0.00483748       0.00176501      -0.00253787
O       11.25138929       0.00113129       7.21004018      -0.00227082      -0.00110392      -0.00482606
O        5.62161130       0.00024214       7.22227420       0.00042982      -0.00044083      -0.00134992
O        2.81154656       1.62754841       7.21100377      -0.00118031       0.00146107      -0.00413708
O        8.43143807       1.62405476       7.22916291       0.00073829      -0.00133064       0.00120986
O       11.25079217       3.25148770       7.23116916      -0.00400179      -0.00005183       0.00095281
O        5.62169298       3.24850035       7.22348482      -0.00098037       0.00203584       0.00017369
O        2.81060335       4.87269094       7.22304407      -0.00149747       0.00017025      -0.00014585
O        8.43443288       4.87254838       7.22519744      -0.00190971       0.00144191       0.00370823
O       11.25079228       6.49440565       7.22977183      -0.00380635       0.00123896       0.00071757
O        5.62191779       6.49683056       7.22332450       0.00011859      -0.00036039       0.00059752
O        2.81143157       8.11777091       7.21073287      -0.00059629      -0.00025212      -0.00315195
O        8.43173072       8.12141286       7.22798591      -0.00005603       0.00015363       0.00205675
O        1.91517297       0.00028482       9.80643779       0.00331300       0.00107817      -0.00558956
O        7.50727828       0.00057529       9.84607639       0.00737005       0.00047759       0.00191528
O        4.69712240       1.62563174       9.83837530       0.00551984      -0.00037883      -0.00193468
O       10.32804940       1.61429399       9.83363210       0.00887947      -0.00529641       0.00469241
O        1.87618026       3.24908675       9.84122587       0.00140972       0.00225383      -0.00022174
O        7.50771517       3.24608040       9.84256863       0.00718461      -0.00036416       0.00291212
O        4.69046184       4.87240397       9.83977451       0.00319060      -0.00005801       0.00106866
O       10.31663462       4.87306258       9.84341850       0.00077745      -0.00269042       0.00299679
O        1.87618037       6.49570463       9.84094397       0.00146424       0.00045899      -0.00008517
O        7.50766533       6.49878533       9.84190683       0.00407149       0.00039196       0.00184120
O        4.69650560       8.11856242       9.83880432       0.00751879       0.00117052      -0.00333851
O       10.32714084       8.12982154       9.83115516       0.00377017      -0.00081360       0.00131451
N       11.17206470       0.00227203       1.97940054      -0.00308728       0.00041439       0.00606961
96
Lattice="11.25152262 0.0 0.0 0.0 9.74410442 0.0 0.0 0.0 10.47155438" Properties=species:S:1:pos:R:3:REF_forces:R:3 REF_energy=-600.78561241 config_weight=1.0 pbc="T T T"
Zn       0.05869222       9.74270497      10.46357568       0.02203365      -0.00857110      -0.02282133
Zn       5.63196765       9.74394588      10.46770556       0.00750800       0.00762818       0.00111589
Zn       2.82036877       1.63066408      10.45269082       0.01069538      -0.00632540      -0.00880877
Zn       8.45436698       1.62276152       0.00049174       0.00717291       0.00097203       0.00538770
Zn      11.24780714       3.24436417       0.00489734       0.00441268      -0.00355877      -0.00410097
Zn       5.63199015       3.25044206      10.46623965       0.00899715      -0.00725330       0.00058304
Zn       2.81349206       4.87251710      10.46817804       0.00126960       0.00285937      -0.00071932
Zn       8.44178159       4.87295101      10.46999653      -0.00057881      -0.00279722       0.00797114
Zn      11.24774267       6.50162837       0.00468351       0.00336001       0.00033599       0.00727366
Zn       5.63239960       6.49459127      10.46633682       0.00591827       0.00271847       0.00250591
Zn       2.82025074       8.11458371      10.45294224       0.00297817       0.00590856      -0.00023206
Zn       8.45418583       8.12223205      10.47140935       0.00562562       0.00104935       0.00658161
Zn       1.94355606       0.00740669       2.60400541       0.00067625       0.00454311      -0.00968007
Zn       7.50706821       0.00174419       2.61339085       0.00197532      -0.00444078       0.00089379
Zn       4.69505831       1.62980076       2.61323231       0.00171525       0.00133060       0.00075957
Zn      10.31859508       1.63992576       2.64243654       0.01165967      -0.02763205       0.00130850
Zn       1.85918585       3.25747710       2.61286968       0.00701056      -0.00063304       0.00141964
Zn       7.49445841       3.25096473       2.61704113       0.00366499      -0.00844187       0.00055446
Zn       4.68067414       4.87278487       2.61616508       0.00145469      -0.00070946       0.00146924
Zn      10.29832637       4.87491902       2.62184339      -0.00025671       0.00857125       0.01137603
Zn       1.85910742       6.49119672       2.61317126      -0.00559868       0.01027925      -0.00390573
Zn       7.49245395       6.49477202       2.61696835      -0.00085148       0.00282606       0.00629603
Zn       4.69336338       8.11709769       2.61306948      -0.01189072       0.00236773      -0.00123109
Zn      10.31128204       8.11339113       2.63385101      -0.00384590      -0.00155292       0.00208663
Zn      11.22747317       0.00156919       5.21659676      -0.00262261      -0.00920481      -0.00328813
Zn       5.62604125       9.74400600       5.23223309      -0.00648384       0.00323094      -0.00375086
Zn       2.80715037       1.62694515       5.22602158       0.00133097       0.00336867      -0.00136687
Zn       8.42827369       1.62725842       5.23994330      -0.00913986      -0.00080424       0.00899373
Zn       0.00134771       3.25665002       5.24405956      -0.00972317       0.00893538       0.00514258
Zn       5.62238315       3.24813592       5.23441055      -0.00486535      -0.00150477       0.00038884
Zn       2.81351772       4.87252636       5.23352748      -0.00871711       0.00461193      -0.00285714
Zn       8.43632528       4.87254780       5.23548493      -0.00560631       0.00192633       0.00730135
Zn       0.00082665       6.49076573       5.24233867      -0.00758850      -0.00165445      -0.00402340
Zn       5.62244684       6.49678827       5.23450689      -0.00186474       0.00176840      -0.00593151
Zn       2.80687493       8.11829134       5.22577476      -0.00236999      -0.00321934      -0.00613705
Zn       8.42944902       8.11819478       5.23908756      -0.00289960      -0.00456706      -0.00059909
Zn       1.87415262       0.00054674       7.82679012       0.00364197       0.00417516      -0.00270891
Zn       7.49717374       0.00005973       7.85742884      -0.00385304       0.00566821       0.00010777
Zn       4.68539022       1.62407454       7.84912103      -0.00196827       0.00170630      -0.00061467
Zn      10.31134224       1.62229098       7.84625025       0.00018059      -0.00180678      -0.00049199
Zn       1.87201348       3.24939544       7.85290189      -0.00567455      -0.00343471      -0.00536182
Zn       7.49770064       3.24871774       7.85430298       0.00062894      -0.00047424      -0.00133469
Zn       4.68501340       4.87295091       7.85139252      -0.00140477      -0.00682676      -0.00324397
Zn      10.30915742       4.87324499       7.85709292      -0.00391870      -0.00117716      -0.00159796
Zn       1.87157220       6.49595087       7.85235946      -0.00399633       0.00166627      -0.00332910
Zn       7.49803088       6.49678097       7.85377134       0.00290837      -0.00659725       0.00116631
Zn       4.68506302       8.12046106       7.84938030      -0.00251383       0.00685927      -0.00344394
Zn      10.31125245       8.12314098       7.84555096       0.00293914       0.00097580      -0.00512778
O        5.62111814       0.00112398       1.98827686       0.00477771       0.00122847      -0.00176555
O        2.81084739       1.63303950       1.97689616      -0.00045468       0.01319759      -0.00330626
O        8.43640539       1.63276102       1.99263491      -0.00074512       0.00659394       0.00428797
O       11.24227781       3.26981421       1.99198473       0.00371505      -0.00030550      -0.00208627
O        5.61892432       3.25136346       1.98532493       0.00619144       0.00447162       0.00027713
O        2.80940551       4.87459601       1.98649722      -0.00536901      -0.00280320      -0.00277253
O        8.42628757       4.87361536       1.98832576      -0.00110495      -0.00705996       0.00111013
O       11.24164873       6.48140155       1.99229354      -0.00099113      -0.01569783      -0.00311529
O        5.61691278       6.49506669       1.98545383      -0.00112145      -0.00223578      -0.00381847
O        2.80540334       8.11964947       1.97813484       0.00564348      -0.00131970      -0.00242502
O        8.42923524       8.11185945       1.99135382      -0.00962115      -0.00010317      -0.00463849
O        1.85910596       0.00059878       4.56904714      -0.00575725       0.00495280      -0.00395002
O        7.49907851       0.00055239       4.60435607      -0.00224599       0.00315645       0.00022521
O        4.68327234       1.62176733       4.60053919      -0.00230758       0.00231006      -0.00160678
O       10.30282697       1.64547922       4.63573220       0.00367844      -0.00407582      -0.00252039
O        1.87541279       3.24991938       4.60182122      -0.00721365      -0.00186837      -0.00717908
O        7.49473114       3.25069852       4.60597718      -0.00113198      -0.00317782      -0.00108055
O        4.68767326       4.87226814       4.60466195      -0.00551926       0.00130928      -0.00179987
O       10.31122567       4.87359061       4.61146678      -0.00183497      -0.00912135       0.00050399
O        1.87543023       6.49526361       4.60152048      -0.00254989      -0.00094359      -0.00048157
O        7.49517456       6.49450143       4.60597822      -0.00722099       0.00246961       0.00339644
O        4.68302087       8.12281124       4.60017719      -0.00285456      -0.00254101      -0.00082445
O       10.30377739       8.10215189       4.63134253      -0.00351211       0.00765659      -0.00309484
O       11.25142867       0.00126264       7.20974687      -0.00411918      -0.00329752      -0.00586180
O        5.62150160       0.00040360       7.22194612       0.00249827      -0.00303891       0.00127080
O        2.81153464       1.62767966       7.21058313      -0.00264726       0.00258198      -0.00398239
O        8.43151559       1.62416175       7.22940815      -0.00065638      -0.00524329       0.00058390
O       11.25047330       3.25138256       7.23112360      -0.00241026       0.00143726       0.00414074
O        5.62185051       3.24840895       7.22343560      -0.00366256       0.00529302       0.00185794
O        2.81034265       4.87256387       7.22287977      -0.00033421       0.00319098       0.00290223
O        8.43427019       4.87234843       7.22539409      -0.00456783       0.00516195       0.00606744
O       11.25054498       6.49434260       7.22949465      -0.00366433       0.00247731       0.00605153
O        5.62195008       6.49681312       7.22317988      -0.00220782      -0.00040334       0.00501317
O        2.81126415       8.11794630       7.21032647       0.00106558      -0.00381971      -0.00212775
O        8.43161471       8.12148331       7.22802895      -0.00113296       0.00091054       0.00481990
O        1.91603956       0.00036989       9.80596437      -0.00389796       0.00149047      -0.00571222
O        7.50788507       0.00070265       9.84627944       0.00732203      -0.00114644       0.00199774
O        4.69759879       1.62565737       9.83819959       0.00583890       0.00082018      -0.00145771
O       10.32854886       1.61396698       9.83364582       0.01305516      -0.00593582       0.00973182
O        1.87663819       3.24892646       9.84106942      -0.00222717       0.00774338       0.00215658