215
Lattice="10.643199 0.0 0.0 0.0 10.643199 0.0 0.0 0.0 10.643199" Properties=species:S:1:pos:R:3:REF_forces:R:3 REF_energy=-2248.84640965 config_weight=1.0 pbc="T T T"
C        0.88699846       0.88694428       0.88714576       0.00149956       0.00515719      -0.00476306
C        0.89335255       0.89418336       4.43443522      -0.09855498      -0.05632719      -0.10437045
C        0.88689352       0.88697696       7.98266576       0.04015713       0.02160642      -0.04652185
C        0.88635582       4.43526348       0.88528394       0.09690205       0.05946482       0.09599999
C        0.89282125       4.43866323       4.43525943       0.05158274       0.20225936       0.02668388
C        0.89161260       4.43566238       7.97958082       0.08024125       0.08035737      -0.03027330
C        0.88727763       7.98232049       0.88722505       0.00949486       0.01819177      -0.01882861
C        0.88212142       7.98729640       4.43838768       0.14676819      -0.08762578      -0.08612765
C        0.88744686       7.98206101       7.98229580      -0.02918382       0.03914761       0.03867470
C        4.43558639       0.89082639       0.89287851      -0.08522476       0.02019844       0.00506389
C        4.43944774       0.88934337       4.44077569      -0.07163943       0.19957350      -0.13764737
C        4.43482955       0.89132162       7.97810153       0.08444470      -0.09299717       0.12311707
C        4.44096599       4.42749245       0.89315512       0.04329573       0.23352536       0.20904083
C        4.43872475       4.43548326       7.98045665       0.10021260       0.34983949      -0.05444550
C        4.43436966       7.97669450       0.89168838       0.12093585      -0.00062425       0.01849405
C        4.43286758       7.97992726       4.43505827       0.19621081       0.10093760       0.03937600
C        4.43282916       7.98719305       7.98732279       0.15721477      -0.01992885      -0.03813720
C        7.98262244       0.88719876       0.88744877      -0.04002578      -0.01056062      -0.00896366
C        7.98723701       0.88351792       4.43699438       0.07296235      -0.03752743       0.03410275
C        7.98232219       0.88713480       7.98230421       0.00087123      -0.00677044       0.03278221
C        7.98267980       4.43536789       0.88937072      -0.00242660      -0.01462560       0.05822174
C        7.98820959       4.43436423       4.44141163       0.00324629       0.15528156       0.19044492
C        7.99095787       4.42819320       7.99086709      -0.05523135       0.35899997      -0.03703057
C        7.98262244       7.98230442       0.88714065      -0.02372664      -0.00980969       0.02353536
C        7.98194521       7.98289916       4.43313111       0.08281288       0.06179114       0.11748131
C        7.98224556       7.98192126       7.98210039       0.01480691      -0.00636720       0.00716645
C        2.66502191       2.66204405       0.89197681      -0.06967907       0.01652075       0.02141801
C        2.68094818       2.69345415       4.41718856       0.02767608      -0.12160601      -0.83737135
C        2.66584207       2.66404454       7.97462865       0.02556643       0.28565849      -0.01548534
C        2.66531928       6.21198824       0.88664670      -0.02200666      -0.33170298       0.33242179
C        2.69699163       6.20785602       4.42127874      -0.77914781      -0.07998248       1.10093672
C        2.66244082       6.21367945       7.98485911       0.15755371      -0.08010969      -0.10842178
C        2.66098824       9.75690140       0.88674494       0.01177669      -0.00102476      -0.00073725
C        2.66120068       9.75678613       4.43528774       0.01948397       0.03296783      -0.02058156
C        2.66029090       9.75714183       7.98229143       0.02096497       0.13215592      -0.01565060
C        6.20422637       2.66118759       0.89769221      -0.04764185       0.05299477       0.16787223
C        6.21338197       2.65994446       4.43563173       0.41991894       0.48984600       0.93217592
C        6.20604253       2.66128625       7.97971546       0.16496010       0.16747493       0.09203455
C        6.21051607       6.20329775       0.89293460      -0.03769056      -0.08530728       0.12309558
C        6.22028387       6.20193404       4.45009115      -0.68643201       0.02491450      -0.03049056
C        6.20578070       6.21189522       7.99003798       0.26237669       0.07185548      -0.20054424
C        6.20851281       9.75594543       0.88730647       0.00896113      -0.00023877       0.05265009
C        6.20840106       9.75637882       4.43494822      -0.02072878      -0.01623092      -0.03885313
C        6.20842767       9.75622651       7.98258646      -0.00450555       0.05827693       0.07514070
C        9.75640447       2.66111745       0.88694662       0.03996839       0.02378917      -0.02291666
C        9.75569584       2.66106008       4.43495961       0.13569504       0.01012173       0.01781060
C        9.75724986       2.66039531       7.98276442       0.10333657       0.04446492       0.00841059
C        9.75564103       6.20867885       0.88722154      -0.01591611      -0.00113656       0.01572499
C        9.75630506       6.20906690       4.43464936       0.02990610      -0.01370687       0.01388977
C        9.75611774       6.20871014       7.98310351      -0.00298606      -0.04849682       0.01614758
C        9.75638531       9.75630187       0.88713224      -0.00305465       0.00118032      -0.00036965
C        9.75695397       9.75715726       4.43560533       0.03201717       0.03065588      -0.04065511
C        9.75624535       9.75631496       7.98234869       0.00708461      -0.00394952      -0.00438067
C        2.65953928       0.88717513       2.66201765       0.16328076       0.19530104       0.13801726
C        2.66472145       0.90083813       6.19991885      -0.04012857      -0.05757952      -0.02558857
C        2.66093385       0.88740226       9.75644555       0.01578278       0.04072938      -0.01514218
C        2.67697071       4.42009287       2.68995594      -0.17275763      -0.31382784      -0.99865672
C        2.70394472       4.46184731       6.16359862      -0.12409151       0.08178560       1.29879165
C        2.66147112       4.43459370       9.75636519       0.04733238       0.00239285       0.02811703
C        2.66636199       7.98158803       2.65748865      -0.06932681      -0.09997319       0.09945071
C        2.65958153       7.98592119       6.21380163       0.04268132      -0.04244888      -0.09396512
C        2.66119791       7.98338907       9.75633592      -0.03394803       0.04730637       0.02953864
C        6.20626656       0.89182302       2.66507597      -0.02613792       0.06656405      -0.06490496
C        6.20899846       0.88794932       6.21025191       0.07148948      -0.01141934       0.03184459
C        6.20865575       0.88691917       9.75626249      -0.00003468       0.03962365       0.04883398
C        6.20227579       4.42751757       2.70252939       0.26161937       0.34745530      -0.12641985
C        6.23558858       4.45202875       6.23433183      -0.98115291      -0.88969666      -1.00580115
C        6.20909276       4.43548177       9.75698154      -0.00118998      -0.04866661       0.00835658
C        6.20566597       7.97532674       2.66398356       0.06982254       0.01257175       0.10154842
C        6.21428600       7.99418244       6.21140010      -0.09135263      -0.21725676       0.12097666
C        6.20813732       7.98177088       9.75667715       0.02211755       0.00269979       0.07344188
C        9.75736874       0.88699984       2.66133351       0.08413336      -0.04496531      -0.01667773
C        9.75627419       0.88726677       6.20880316       0.12940397       0.02725953       0.02113464
C        9.75633720       0.88717907       9.75633241      -0.00133761      -0.00936136      -0.00063923
C        9.75631634       4.43460221       2.66103986       0.02632935       0.04097721       0.03023926
C        9.75751083       4.43478059       6.20877751       0.07257263       0.00731091       0.00094492
C        9.75677400       4.43402737       9.75623300       0.05189587       0.02830216       0.03068693
C        9.75631815       7.98313193       2.66110649      -0.02553790      -0.00643196      -0.01052414
C        9.75628324       7.98226504       6.20769637      -0.01541025       0.04225640       0.04105213
C        9.75622821       7.98234444       9.75623162       0.01024185      -0.00166957       0.00548459
C        0.88900736       2.66379475       2.65836927       0.00929613       0.07167920       0.02138686
C        0.89801534       2.66525223       6.20448596       0.12144925       0.20184045      -0.01725594
C        0.88780468       2.66077921       9.75656326       0.03380752       0.02072186      -0.01262208
C        0.88434862       6.21140617       2.65987698       0.33118309      -0.13383811      -0.02812872
C        0.88527703       6.21076853       6.21386570       0.22006799      -0.04664952      -0.22961866
C        0.88754584       6.20884956       9.75617883      -0.00795815       0.00969390       0.01482141
C        0.88722122       9.75577577       2.66109361       0.04217634       0.01119374       0.00803487
C        0.88744771       9.75635136       6.20833103       0.01027761       0.11598071       0.03123113
C        0.88716087       9.75631432       9.75639968      -0.00434863      -0.00137837      -0.00586954
C        4.41772540       2.70061649       2.69450506      -0.44810738      -1.05337116      -0.04740996
C        4.44577353       2.67726531       6.19281431       0.22626791       0.48471714      -0.14899387
C        4.43493194       2.66086137       9.75545009       0.02757790      -0.00940703       0.02646480
C        4.45472691       6.17717232       2.71592535      -0.19269699       0.16260765      -1.27406295
C        4.43394585       6.21359515       6.18861556       0.71216888       0.50130441       1.34650159
C        4.43430867       6.20797554       9.75664639       0.04887454      -0.03006831       0.06358299
C        4.43476761       9.75598566       2.66091555       0.01576348       0.01421335      -0.00958744
C        4.43538491       9.75572139       6.20886510      -0.03645967       0.02371042      -0.01008863
C        4.43430144       9.75733819       9.75743079       0.01722524       0.04801532       0.05539478
C        7.99178464       2.65395990       2.66329728      -0.10348789       0.25791401      -0.05716838
C        7.98804568       2.65885981       6.21346286      -0.01990106       0.23681758       0.07212613
C        7.98215211       2.66080720       9.75657710      -0.06217884       0.02174278       0.04827895
C        7.97969077       6.21021807       2.66598182       0.00313047      -0.06576249       0.07002441
C        7.99075640       6.21210415       6.20623208      -0.05657304       0.03002375       0.40808960
C        7.98341568       6.20838084       9.75642852      -0.03639198      -0.02341373       0.03207754
C        7.98241245       9.75644832       2.66106221      -0.03547675      -0.01362023      -0.01004901
C        7.98310564       9.75725528       6.20807176       0.03381613       0.02634909       0.00676452
C        7.98241106       9.75635072       9.75625035      -0.00769723      -0.00488125       0.00152751
C       10.64313152      10.64306926      10.64318740      -0.00243554       0.00908133      -0.00665712
C        0.00223369       0.00190971       3.54779895       0.04786154       0.00843962       0.01742798
C       10.64308597      10.64304733       7.09528148       0.01302370       0.00512428      -0.00875343
C       10.64248144       3.54799372      10.64235042       0.05513824      -0.01683569       0.00567892
C        0.00144694       3.54631657       3.54869926       0.07041173       0.11063214      -0.00955034
C        0.00300905       3.54832622       7.09329780       0.11854338       0.05850042      -0.01391476
C       10.64313610       7.09519187      10.64318133      -0.00301636       0.00224373       0.01329899
C       10.64177356       7.09637901       3.54810761       0.03452835       0.04010453       0.07282115
C       10.64052436       7.09417278       7.09733456       0.07011323       0.08463568      -0.02324597
C        3.54755565       0.00171675       0.00121226       0.03072832       0.04557153       0.05524753
C        3.54742921       0.00006311       3.54694792       0.08161316       0.10158394       0.10411724
C        3.54877706       0.00352130       7.09315476       0.02096767       0.11241125      -0.12168825
C        3.55058204       3.54493434       0.00074034       0.01831243       0.02067616       0.11427599
C        3.56218387       3.56813853       7.08022902      -0.20477319      -0.49009925      -0.04602482
C        3.54721453       7.09787172      10.64187988       0.11223275      -0.11044509       0.09402752
C        3.54947983       7.08562895       3.54072910       0.39065826       0.32973154       0.36026238
C        3.55248920       7.10479054       7.10511261      -0.00509099       0.06514769      -0.13137942
C        7.09534045       0.00008174       0.00000149       0.00316879      -0.02212103       0.00641136
C        7.09521124       0.00019424       3.54759982      -0.02361379       0.05732908       0.10337458
C        7.09363870      10.64221642       7.09683347       0.03643698       0.04854035      -0.00484731
C        7.09341871       3.54943950       0.00244336      -0.05080753      -0.00852261       0.14643765
C        7.12284002       3.53696471       3.56142320      -0.96418529       0.18034565      -0.20910945
C        7.10928421       3.55734899       7.11166286      -0.04450141      -0.27583853      -0.13377715
C        7.09574499       7.09396598       0.00071065      -0.02562615      -0.01431544       0.08641567
C        7.08941304       7.09178764       3.56462149       0.51311789       0.27254329      -0.36455757
C        7.09624246       7.09393693       7.09433041       0.09284427       0.24541301       0.17055431
C        1.77508550       1.77376979       0.00154177       0.02304233       0.02461174       0.03266773
C        1.78370309       1.79062149       3.54429127      -0.40717657      -0.53145628       0.34332674
C        1.77472661       1.77476301       7.09447483       0.13678715       0.13933720      -0.10950275
C        1.77400053       5.32236421      10.64273794       0.06543317      -0.01380248       0.03833152
C        1.77781953       5.33074392       3.55111154       0.59950109      -0.50910031       0.26649185
C        1.78705037       5.32964469       7.09199710      -0.33398270      -0.28422811      -0.02606470
C        1.77398340       8.86934034      10.64319283      -0.00791530       0.01651244       0.00215623
C        1.77548909       8.86826985       3.54755320      -0.02680014       0.00344754       0.03202519
C        1.77531965       8.87105645       7.09671661      -0.08675106       0.01543353      -0.01515086
C        5.32079658       1.77494469       0.00132433      -0.02028983       0.02963589       0.13648986
C        5.33450768       1.78345382       3.57720781      -0.79595443       0.15703018      -0.78467416
C        5.31698237       1.78360123       7.08739072       0.08983261      -0.44902660       0.31425179
C        5.32328272       5.31872126       0.00199007       0.01934839      -0.01263527       0.08551758
C        5.35697185       5.33111005       3.56488927       0.90890389       0.93158285      -0.06210991
C        5.33298251       5.33746223       7.10694579      -0.34327860      -0.42368189      -0.49741085
C        5.32175351       8.86804943       0.00128474      -0.02121552      -0.04281275       0.04658805
C        5.32031934       8.86668539       3.54720783      -0.05486838       0.03720001       0.02154461
C        5.32339096       8.87141268       7.09683049      -0.03272952       0.08830827       0.11231768
C        8.86905148       1.77385579      10.64312365       0.00184638       0.00848857       0.00256923
C        8.87261089       1.77044539       3.54569437       0.05410050      -0.03868480       0.12604297
C        8.87197975       1.77505187       7.09820219       0.00632540      -0.07152758      -0.05070533
C        8.86959301       5.32123082      10.64272580       0.00226092       0.00729322       0.04255844
C        8.86945390       5.32402242       3.54809068       0.04131828      -0.11152325       0.08078383
C        8.86904393       5.32135630       7.09573275       0.21253406       0.02222584       0.11983443
C        8.86920634       8.86914983      10.64315398      -0.00281833       0.00020764      -0.00021591
C        8.86934343       8.86967113       3.54842009       0.01805284       0.01795142      -0.00247244
C        8.86932182       8.86921145       7.09514983      -0.01151210      -0.00148634      -0.00114350
C        1.77234999      10.64195353       1.77318047       0.04413814       0.09609432       0.03548905
C        1.77549377       0.00302086       5.32170040       0.05846596       0.10522691      -0.08899395
C        1.77406056      10.64313674       8.86920496      -0.01021898       0.02549902       0.01332270
C        1.77663856       3.55384897       1.77447490      -0.17061273       0.01611057      -0.03972161
C        1.80534082       3.57754158       5.31925555      -0.37164362      -0.42775555      -0.57160014
C        1.77494693       3.54745092       8.86749811       0.06470164      -0.00931265      -0.04142214
C        1.77478856       7.09684188       1.77397020       0.00843175      -0.00090878      -0.07151670
C        1.76495552       7.10466027       5.32808280       0.43499692      -0.14898515      -0.45966358
C        1.77399872       7.09675557       8.87097120      -0.01413820      -0.01447530      -0.03789204
C        5.32138525       0.00066094       1.77425075      -0.00599424       0.07043406       0.10261232
C        5.32019779      10.64127939       5.32451425       0.08517161       0.11175134       0.00879058
C        5.32179789       0.00095044       8.86838490      -0.03654248       0.02444198       0.00840784
C        5.32066971       3.55233370       1.81579095      -0.10172885       0.20701910      -0.78437592
C        5.37760050       3.51397880       5.35274501       0.88345187       0.57500492       1.13386930
C        5.32261412       3.54787345       8.86929042      -0.05810949      -0.02128692      -0.02313429
C        5.32196871       7.07768338       1.78668233      -0.08464038       0.41877490      -0.11484517
C        5.33232923       7.11657703       5.33940153      -0.20811719      -0.75629206      -0.78609224
C        5.32358957       7.09498251       8.86975117      -0.11317659       0.16199675       0.18142552
C        8.86928542       0.00008876       1.77404992       0.00890685      -0.00783591       0.00059601
C        8.87158542      10.64120957       5.31987892       0.04105804       0.02571194       0.05527615
C        8.86915802       0.00000947       8.86907330      -0.00505686      -0.00332276       0.00581002
C        8.87007994       3.54736758       1.77279179       0.07879016      -0.09051574       0.03315967
C        8.87152645       3.55081076       5.32362916       0.10147439      -0.17131315       0.03751436
C        8.87015050       3.55072722       8.87005492       0.18005409      -0.15824751       0.17243109
C        8.86842950       7.09614092       1.77534147      -0.04830596      -0.02682657       0.01214476
C        8.86821003       7.09505606       5.32320620       0.19954499       0.16186779      -0.10673543
C        8.86930948       7.09514461       8.86917388      -0.01062001       0.00832731       0.01461916
C        0.00041806       1.77447341       1.77365740       0.03310512      -0.02145485      -0.00013913
C        0.00220910       1.77518203       5.32058701       0.13801092       0.12933253      -0.03369014
C        0.00015869       1.77397829       8.86935184       0.02524611       0.00333159       0.02168240
C       10.64178143       5.32138845       1.77325998       0.04061012       0.01494033       0.00001580
C        0.00134168       5.32101136       5.32083117       0.01437119       0.06793157       0.11332193
C        0.00053855       5.32125072       8.86870909       0.05270958       0.00753630      -0.02059255
C        0.00004928       8.86912066       1.77386079      -0.00287401       0.00363626       0.01210881
C       10.64060876       8.87195282       5.32001718       0.03623809      -0.00391660       0.07104756
C        0.00003576       8.86906841       8.86907298       0.00081210       0.00281477       0.00329886
C        3.54954167       1.78030397       1.79302738       0.26184539      -0.10419760      -0.58688606
C        3.55819299       1.80594205       5.30363974       0.04035078      -0.52631339       0.33453358
C        3.54790272       1.77415741       8.86732303       0.03283905       0.08070482      -0.08168471
C        3.56460297       5.31579991       1.77913726      -0.14548260      -0.17455521       0.77739031
C        3.56010292       5.39332274       5.36700967      -1.22666736      -0.21780725      -0.74500315
C        3.54796829       5.32159695       8.86895836       0.02860614      -0.01929023       0.02557783
C        3.54786813       8.86946093       1.77246546       0.04108503      -0.04221448       0.01856905
C        3.54677125       8.86893143       5.31885760      -0.01337616       0.00512947       0.12565867
C        3.54829769       8.87224019       8.87174453       0.01210080       0.03041901      -0.00728170
C        7.09520485       1.77443488       1.77411537       0.04635217      -0.05199717       0.12839015
C        7.11382353       1.76480343       5.33392720      -0.40955348       0.05530219      -0.48928594
C        7.09477721       1.77363952       8.86871729      -0.06076522       0.00050506      -0.02052124
C        7.09821038       5.31541644       1.78655334      -0.08721420      -0.06844877      -0.23702932
C        7.10947813       5.33546674       5.34512235      -0.18952452      -0.52153577      -0.63402821
C        7.09705613       5.32041587       8.86969838       0.04011703       0.05060411       0.13688082
C        7.09486438       8.86760688       1.77490478      -0.03058145      -0.06927348       0.04296669
C        7.09907876       8.87200018       5.32125945      -0.02386763       0.06261960       0.02115275
C        7.09498454       8.86895452       8.86913737       0.00616975      -0.01867079       0.01401884
N        3.51513859       3.53145228       3.51093943      -1.03379427      -1.03341961      -0.40277950
215
Lattice="10.643199 0.0 0.0 0.0 10.643199 0.0 0.0 0.0 10.643199" Properties=species:S:1:pos:R:3:REF_forces:R:3 REF_energy=-2249.2000044 config_weight=1.0 pbc="T T T"
C        0.88701251       0.88701144       0.88707434       0.02168846       0.01384554       0.00665779
C        0.89242617       0.89386758       4.43275434      -0.10894848      -0.10107651       0.02093297
C        0.88738864       0.88725592       7.98209124       0.04989515       0.05558114      -0.03898013
C        0.88778222       4.43611397       0.88656453      -0.01665397      -0.00126758      -0.00806676
C        0.89384704       4.44201690       4.43575136       0.02236971      -0.00355595      -0.02550913
C        0.89304294       4.43694308       7.97899087      -0.02896848       0.02602037       0.03756093
C        0.88742812       7.98256401       0.88701187       0.00431612       0.00878402      -0.01423404
C        0.88373834       7.98644090       4.43761754       0.11146093      -0.04582663      -0.07112475
C        0.88711064       7.98254219       7.98277889      -0.01562879       0.02782412       0.01359857
C        4.43436668       0.89133524       0.89342322       0.00082384      -0.05320574      -0.08832915
C        4.43888184       0.89247630       4.43934142      -0.04347070       0.02923751      -0.07517839
C        4.43601116       0.89035490       7.97945332       0.01903330      -0.06878272       0.07924619
C        4.44215601       4.43020966       0.89630306      -0.07277220       0.14884983       0.07427594
C        4.44024683       4.44021544       7.97944257      -0.02368368       0.03437115      -0.02736698
C        4.43604575       7.97624110       0.89222448       0.06380442       0.08591020      -0.04280135
C        4.43531446       7.98130800       4.43583321       0.10248238       0.01324911       0.00428497
C        4.43498611       7.98705363       7.98694613       0.00321121       0.08344294       0.06256307
C        7.98212721       0.88708126       0.88736788      -0.01146523      -0.00357980       0.00619566
C        7.98851526       0.88283526       4.43765426      -0.00400966       0.00739591      -0.01167759
C        7.98234050       0.88703816       7.98272270       0.00401360       0.00765102       0.01345038
C        7.98267544       4.43518887       0.89039417       0.02518879      -0.02226019      -0.00237554
C        7.98864223       4.43586929       4.44475540      -0.06999106       0.02860072      -0.09430217
C        7.99134050       4.43213001       7.99149461      -0.06315464       0.16017906      -0.06334869
C        7.98233677       7.98216499       0.88744803      -0.02650026      -0.02093841       0.02996853
C        7.98307882       7.98384524       4.43461169       0.10896646       0.08196120       0.04144569
C        7.98242863       7.98178514       7.98216425       0.03225925       0.05854492       0.04954267
C        2.66427507       2.66221189       0.89258848      -0.03763166       0.01609090      -0.06899442
C        2.68030522       2.68946636       4.40727708      -0.16864199      -0.24389571      -0.35744198
C        2.66654378       2.66811695       7.97389778       0.03463339       0.05401537       0.00493703
C        2.66535546       6.20752491       0.89110673      -0.00195414      -0.18813214       0.21388138
C        2.69124196       6.20496788       4.43385570      -0.46072963       0.07736084       0.39743811
C        2.66487343       6.21295060       7.98349273      -0.00941585      -0.05433702      -0.05149741
C        2.66111692       9.75691843       0.88671301       0.01596210       0.00991401       0.02036183
C        2.66148262       9.75725933       4.43508712       0.02763915       0.02380510      -0.00944030
C        2.66051568       9.75894010       7.98208868       0.02629325       0.07135187      -0.03005112
C        6.20337396       2.66190068       0.90077469      -0.01286497       0.04087445       0.01640257
C        6.21596380       2.66372035       4.44437491      -0.03066250       0.44203197       0.38473644
C        6.20791711       2.66353069       7.98075658       0.09880612      -0.00983568       0.07697658
C        6.21027809       6.20166977       0.89498011      -0.04065093       0.04765672       0.01170258
C        6.21462925       6.20284871       4.44658358      -0.20808675       0.06993049      -0.07318366
C        6.20840915       6.21383207       7.98820905       0.15296373      -0.10900747      -0.14106281
C        6.20858827       9.75589562       0.88802595      -0.00850097       0.00199910       0.04544121
C        6.20811582       9.75619969       4.43445129      -0.01064105       0.02429030       0.00851506
C        6.20837030       9.75696770       7.98358139       0.00917147       0.04816705       0.04414370
C        9.75693865       2.66144100       0.88664755       0.03380064      -0.01837234      -0.01146778
C        9.75740046       2.66120291       4.43525368       0.11205016       0.01181377       0.00988139
C        9.75868403       2.66093566       7.98290619       0.08418110       0.00513704       0.00201417
C        9.75537708       6.20870364       0.88745665       0.00328109       0.00846899       0.02105679
C        9.75672153       6.20892417       4.43481018       0.05073825       0.01336764       0.02340781
C        9.75603898       6.20809443       7.98337268       0.07510067       0.00315548       0.01922860
C        9.75634774       9.75631634       0.88713554      -0.00084831      -0.00102298      -0.00196432
C        9.75741025       9.75760896       4.43516300       0.03873829       0.01264196      -0.02974290
C        9.75632815       9.75626749       7.98228462       0.00243776      -0.00017554      -0.00269936
C        2.66185758       0.88997355       2.66418876       0.04058638       0.02504252      -0.00998811
C        2.66461438       0.90095382       6.19870883      -0.00685038      -0.03430191       0.04546986
C        2.66111000       0.88795794       9.75626206       0.02148244       0.05098774      -0.01273494
C        2.67671580       4.41123007       2.68199664      -0.26576895      -0.11259712      -0.55236087
C        2.70111299       4.46148161       6.17642357      -0.38163453      -0.21420051       0.66566091
C        2.66212930       4.43458167       9.75673664       0.05254166      -0.00994198       0.02600553
C        2.66547690       7.98019047       2.65861172       0.01157890      -0.02584304       0.13921770
C        2.65992924       7.98566991       6.21304032       0.06488923      -0.03740231      -0.12616999
C        2.66083136       7.98408449       9.75671397      -0.00495773      -0.01037632       0.03697995
C        6.20572642       0.89302900       2.66480330      -0.04995125       0.06871592      -0.03657680
C        6.21011238       0.88787684       6.21066742       0.00909521      -0.01975945      -0.00359238
C        6.20865703       0.88742610       9.75690044      -0.01960076       0.03648338       0.05001537
C        6.20304742       4.43210862       2.69934814       0.06457167       0.27879739      -0.13886044
C        6.22009229       4.43622945       6.21812479      -0.12005949      -0.01058979      -0.15098768