510
Lattice="16.89058563 2.65957743 0.0 3.07101842 15.95746458 0.0 0.0 0.0 20.10150112" Properties=species:S:1:pos:R:3:REF_forces:R:3 REF_energy=-4444.79573362 config_weight=1.0 pbc="T T T"
Si       1.53539607       0.88666671       9.42682992      -0.00042690       0.00011993      -0.00641474
Si       1.53559408       0.88640790      19.47633861      -0.00282044       0.00176272       0.00181737
Si       3.07104680       3.54615562       9.42684560      -0.00017936       0.00050375      -0.00461861
Si       3.07098019       3.54601376      19.47620292      -0.00183222      -0.00177846       0.00218887
Si       6.14247971       3.54690081       9.42694992      -0.00031264      -0.00934333      -0.00100192
Si       6.14158991       3.54574113      19.47593919      -0.00246706      -0.00036670       0.00137674
Si       4.60732200       6.20565962       9.42694128      -0.00839152       0.00293020      -0.00316965
Si       4.60596544       6.20575798      19.47602281      -0.00145495      -0.00766645       0.00067917
Si       3.07131476       8.86491817       9.42697183      -0.00179461       0.00373982      -0.01287376
Si       3.07058227       8.86566783      19.47632735      -0.00180792      -0.00120227       0.00004581
Si       9.21404986       3.55015829       9.42643633       0.01437099       0.02357363      -0.05560726
Si       9.21275358       3.54491371      19.47599969       0.01040976       0.01085080       0.01404118
Si       7.68040148       6.20762702       9.42489495      -0.03157116      -0.02308341       0.05079278
Si       7.67659948       6.20567811      19.47498175       0.00009214      -0.02867644       0.00212598
Si       6.14619747       8.86414822       9.42609420       0.02474081       0.00441345      -0.04987644
Si       6.14117489       8.86642971      19.47653721       0.00382797      -0.01537452      -0.01362317
Si       4.60740666      11.52433358       9.42661342       0.01107642      -0.00516307      -0.02520263
Si       4.60660525      11.52490464      19.47607005      -0.02266570       0.01373406      -0.01314361
Si      12.28292780       3.55031858       9.42619029      -0.00955184       0.01912026      -0.05883511
Si      12.28422300       3.54471161      19.47597839      -0.00184594       0.01897306       0.00757648
Si      10.74910510       6.22553257       9.39892119      -0.00150310      -0.09122263       0.17357157
Si      10.74886533       6.20720667      19.47829750       0.01709020       0.02260433       0.05193720
Si       9.23157251       8.85834303       9.39548524      -0.08199690       0.09206091       0.10542593
Si       9.21476918       8.86723299      19.48027910       0.02405353       0.03674357      -0.10374077
Si       7.68253012      11.52168432       9.42518823       0.03655526      -0.03034169      -0.09746664
Si       7.67679090      11.52581398      19.47642504       0.01790875       0.00812397       0.02688513
Si       6.14278559      14.18406891       9.42656196      -0.00732091       0.00066197      -0.01041451
Si       6.14187365      14.18432098      19.47618664      -0.01550617       0.01328451      -0.01787506
Si      15.35448727       3.54705754       9.42682549       0.00274889      -0.00969185      -0.00438954
Si      15.35541783       3.54577799      19.47600713      -0.00047641       0.00125703       0.00439659
Si      13.81662306       6.20714106       9.42459965       0.03907704      -0.02718570       0.07305697
Si      13.82066967       6.20541212      19.47493693      -0.00191223      -0.01413833       0.03725101
Si      12.26617980       8.85980497       9.39262822       0.06578851       0.01966810       0.05052214
Si      12.28484995       8.86718716      19.47430152       0.05277519       0.09160625       0.01471138
Si      10.75174081      11.51937445       9.42132371       0.03378466       0.04126516      -0.10483879
Si      10.74898569      11.52695550      19.47211066       0.06083952       0.02095594       0.06603533
Si       9.21343136      14.18359213       9.42637623      -0.00956996       0.00740537      -0.00076656
Si       9.21267568      14.18441271      19.47609337       0.00097496       0.01518338      -0.00481880
Si       4.60675088       0.88643077       9.42674268      -0.00075941      -0.00095925      -0.00166097
Si       4.60642579       0.88628365      19.47630765      -0.00206063       0.00332651       0.00130404
Si      16.88959540       6.20582582       9.42684519       0.00951752       0.00788157      -0.00276392
Si      16.89103574       6.20570151      19.47605437      -0.00122298      -0.00173950       0.00421594
Si      15.35083180       8.86439596       9.42574283      -0.00991627      -0.00408339      -0.06084452
Si      15.35578405       8.86653450      19.47651309      -0.00817891      -0.02300173      -0.01642311
Si      13.81384021      11.51999498       9.42388163       0.01714162      -0.00092998      -0.13311640
Si      13.82196647      11.52653768      19.47268516      -0.01598235       0.00551637       0.09003878
Si      12.28319364      14.18350327       9.42621682       0.00637250       0.00605834      -0.00517045
Si      12.28416219      14.18409771      19.47649922      -0.00304091       0.00841221      -0.01532594
Si      10.74849310      16.84419078       9.42693625       0.00265523      -0.00035623      -0.01057655
Si      10.74836748      16.84340442      19.47614161       0.00261419       0.00117658       0.00120971
Si       1.53494431       6.20543074       9.42683876      -0.00398402       0.00318910      -0.00843088
Si       1.53556719       6.20608603      19.47618644      -0.00212440      -0.00497073       0.00302425
Si      16.88982488      11.52444289       9.42662810       0.00034609       0.00173119       0.00284624
Si      16.89041288      11.52511095      19.47610462       0.02174302       0.00341575       0.00665623
Si      15.35451326      14.18420617       9.42661945      -0.00046384      -0.00533459      -0.00970280
Si      15.35512706      14.18418026      19.47621257       0.00839446       0.01824817      -0.00372159
Si      13.81930654      16.84472903       9.42679715       0.00485674       0.00690537      -0.01471489
Si      13.81956915      16.84328086      19.47614101       0.00392515       0.00708946       0.00295984
Si      18.42601797      14.18433891       9.42674087      -0.00006439       0.00008939      -0.00912749
Si      18.42607202      14.18440699      19.47637197       0.00172398       0.00671688       0.00111461
Si      16.89033885      16.84459179       9.42693002      -0.00020372      -0.00122941      -0.01361352
Si      16.89058072      16.84346392      19.47622905       0.00103992       0.00570041       0.00314426
Si       3.07105088      14.18450019       9.42667654       0.00028497      -0.00257038      -0.00618197
Si       3.07104146      14.18425298      19.47631227      -0.00265325       0.00444086       0.00140374
Si      16.89194854       4.43153616       4.40054545       0.00173840      -0.01172392       0.01978966
Si      16.89050097       4.43263480      14.45092634      -0.00078696      -0.00073040      -0.00004271
Si       1.53601265       4.43070172       4.39958379      -0.05371321       0.02719508       0.03587411
Si       1.53550737       4.43268901      14.45105137      -0.00030805      -0.00031022      -0.00192257
Si       4.60490378       4.43089395       4.40039368      -0.03725702      -0.00904096       0.01708615
Si       4.60671467       4.43267805      14.45087649      -0.00225410      -0.00068846      -0.00002541
Si       3.07052436       7.09098197       4.39951926       0.05338818       0.03199039       0.04330578
Si       3.07115360       7.09224731      14.45098081      -0.00216265      -0.00114054      -0.00232759
Si      18.42571095      12.41166334       4.40038102      -0.03130085      -0.00805853       0.02415584
Si      18.42608804      12.41128233      14.45109901      -0.00176271      -0.00040293      -0.00475149
Si       7.66619256       4.43388789       4.39356339       0.16675119       0.06790318       0.11921116
Si       7.67768170       4.43265696      14.45045878      -0.00298109      -0.00423377       0.00511999
Si       6.13680506       7.07785591       4.39453972       0.05868650       0.11258107       0.07786317
Si       6.14228653       7.09222527      14.45058481      -0.00472937      -0.00135585       0.00646840
Si       4.60397718       9.75415746       4.40018241       0.06403204      -0.05747251       0.01787393
Si       4.60676709       9.75176317      14.45097720      -0.00452921       0.00009781      -0.00366654
Si       3.07135137      12.41165537       4.40077842      -0.02970140       0.00859940       0.01420063
Si       3.07115664      12.41132265      14.45121480      -0.00215519       0.00095830      -0.00372128
Si      10.74883363       4.42442296       4.39704195       0.03368601       0.08128670       0.04918701
Si      10.74857046       4.43285209      14.45028912       0.00055747      -0.00438726      -0.00058979
Si       9.17242552       7.07227011       4.37114941      -0.13956355      -0.06218346      -0.12793540
Si       9.21316650       7.09233050      14.44957833       0.00015102      -0.00108701       0.02111122
Si       7.67209793       9.73765646       4.37630384      -0.09156358      -0.02273225       0.12211613
Si       7.67793177       9.75168996      14.45029957      -0.00333425       0.00062974       0.00027645
Si       6.13743225      12.41029020       4.40049378       0.07638947      -0.04739646       0.01096365
Si       6.14226869      12.41124146      14.45091327      -0.00397926       0.00236177      -0.00334073
Si       4.60661940      15.07032766       4.40063470       0.00584281       0.00077477       0.01560655
Si       4.60664693      15.07087327      14.45111489      -0.00236995       0.00108008      -0.00286643
Si      13.83005709       4.43448725       4.39389929      -0.19393760       0.11805702       0.09753678
Si      13.81950327       4.43272379      14.45052632       0.00128034      -0.00394736       0.00610864
Si      12.31454780       7.08400765       4.38113905       0.23393724      -0.04658515      -0.19722317
Si      12.28406793       7.09231657      14.44949833       0.00072498      -0.00230923       0.02211842
Si      10.78087755       9.56134740       4.50925436      -0.09573478       1.24641527      -1.55550449
Si      10.74865496       9.75181198      14.44948506      -0.00067272      -0.00179198       0.02066709
Si       9.21962335      12.36717311       4.37998925      -0.07486761       0.29117261       0.22514408
Si       9.21323850      12.41115396      14.45039827      -0.00268085       0.00415030       0.00703528
Si       7.68152305      15.06956008       4.39785265      -0.01041856      -0.20252525       0.07589732
Si       7.67770682      15.07073466      14.45102584      -0.00265977       0.00219485      -0.00098535
Si       3.07159541       1.77268775       4.40042946      -0.00623784      -0.02587921       0.01896513
Si       3.07111201       1.77299971      14.45109439      -0.00193905       0.00099551      -0.00200217
Si      15.36169032       7.08050070       4.39394371      -0.18039824       0.11826005       0.13487966
Si      15.35494980       7.09221894      14.45054039       0.00364559      -0.00167742       0.00409796
Si      13.82995548       9.75777714       4.39355796       0.36672559      -0.30693758       0.28373014
Si      13.81931778       9.75171312      14.45025897       0.00501696      -0.00204277      -0.00310487
Si      12.26110637      12.42491900       4.38273833      -0.06332156      -0.15257509       0.41566131
Si      12.28399800      12.41118638      14.45049295       0.00139720       0.00462461       0.00484776
Si      10.74230088      15.07182676       4.40057359      -0.01522880      -0.02008955      -0.00851570
Si      10.74860981      15.07066758      14.45082684       0.00021934       0.00273949      -0.00077221
Si       6.13988611       1.77307232       4.39983908       0.04309134       0.05608858       0.02466390
Si       6.14218376       1.77295256      14.45094403      -0.00124339       0.00114283      -0.00177863
Si      16.89462802       9.75221405       4.39935463      -0.04799573       0.01964922       0.07649738
Si      16.89044223       9.75178831      14.45087749       0.00144791      -0.00181328      -0.00454945
Si      15.35174793      12.41114151       4.39836684       0.02407046      -0.01744758       0.12668631
Si      15.35490748      12.41123220      14.45097639       0.00082326       0.00105835      -0.00540255
Si      13.81982105      15.07362266       4.39959746      -0.04136006      -0.09696384       0.04784937
Si      13.81954693      15.07072596      14.45087206       0.00091800       0.00254316      -0.00480625
Si       9.21373976       1.77164455       4.39995084      -0.00085082       0.02212035       0.02310881
Si       9.21312128       1.77300280      14.45085357       0.00046738      -0.00015383      -0.00256724
Si      16.89070767      15.07034032       4.40051469      -0.00331242      -0.01179883       0.02457640
Si      16.89060129      15.07080032      14.45111771      -0.00023296       0.00080239      -0.00379653
Si      15.35440834      17.72922839       4.39995104      -0.00333574       0.02819834       0.02464792
Si      15.35507213      17.73050645      14.45090362       0.00002522      -0.00035402      -0.00226264
Si      18.42819522      17.73040257       4.39979063      -0.05405583       0.03356402       0.02513685
Si      18.42607622      17.73051533      14.45103207      -0.00136671      -0.00017205      -0.00215818
Si      19.96140089      18.61697273       6.91609554       0.01163359      -0.00448508      -0.00849731
Si       3.07121521      15.95733820      16.96431009      -0.00086216       0.00264886       0.00104365
Si       1.53533671       2.65987770       6.91625173       0.00505176      -0.00610112      -0.00942025
Si       1.53562315       2.65948009      16.96424316      -0.00101030       0.00092389       0.00141380
Si       4.60676417       2.65937669       6.91613755      -0.01290102      -0.00019005      -0.00724655
Si       4.60646966       2.65941232      16.96423391      -0.00212857       0.00179801       0.00084854
Si       3.07104415       5.31951063       6.91665778      -0.01157925      -0.00349513      -0.01200148
Si       3.07101274       5.31911342      16.96424074      -0.00102856      -0.00058274       0.00167677
Si      18.42586034      10.63846653       6.91654823       0.01764686      -0.00283478      -0.01121725
Si      18.42610348      10.63844230      16.96425341       0.00357653      -0.00447620      -0.00143477
Si       7.67753343       2.66008453       6.91856521       0.03876985       0.03483872      -0.01280719
Si       7.67731478       2.65934155      16.96407551      -0.00048082       0.00267432       0.00282867
Si       6.14319882       5.31987600       6.91978919      -0.05781281      -0.02208601      -0.02908377
Si       6.14200852       5.31904935      16.96387449      -0.00471765      -0.00223625       0.00176049
Si       4.60753313       7.97849912       6.91826911       0.04498947       0.00888240      -0.02425525
Si       4.60646414       7.97877088      16.96410928      -0.00223730      -0.00264430       0.00227797
Si       3.07149265      10.63831940       6.91578718       0.01251559      -0.00017884       0.00863583
Si       3.07111665      10.63845842      16.96432256      -0.00398918      -0.00065311      -0.00288600
Si      10.74885652       2.66160036       6.91882593       0.00701332       0.06769077       0.00555109
Si      10.74857715       2.65936913      16.96393460       0.00415411       0.00468142       0.00557518
Si       9.22740564       5.35128311       6.93080542      -0.09085582      -0.08591106      -0.04513223
Si       9.21290800       5.31908912      16.96332532       0.00166012       0.00173959       0.01125845
Si       7.71505505       7.98173320       6.92856149      -0.11855177      -0.09050233      -0.02975766
Si       7.67764907       7.97880452      16.96366182       0.00974668       0.00255530       0.01097521
Si       6.14955450      10.63571889       6.91513609       0.01591081       0.01567464       0.00729190
Si       6.14196431      10.63853706      16.96417883      -0.00504581      -0.00555245       0.00019676
Si       4.60692272      13.29773752       6.91561813       0.00330405      -0.00866116       0.00306595
Si       4.60663230      13.29785566      16.96437442      -0.00310652       0.00652518      -0.00255106
Si      13.81961841       2.66047076       6.91847455      -0.02856302       0.03330986      -0.02019855
Si      13.81990154       2.65937770      16.96405018      -0.00218312       0.00292030       0.00382844
Si      12.27002316       5.35075976       6.93142876       0.10877701      -0.11045764      -0.10151925
Si      12.28427024       5.31910627      16.96338341      -0.00055156      -0.00081585       0.01448522
Si      10.74879608       7.97917139      16.96366564      -0.00585797       0.00362447       0.00737173
Si       9.23365982      10.62176204       6.88284303       0.22223115       0.17300553       0.61004623
Si       9.21323839      10.63863225      16.96376615      -0.00395364      -0.01431979       0.00114146
Si       7.67752139      13.29819042       6.91775693       0.03634965      -0.02558181      -0.11764413
Si       7.67759251      13.29799489      16.96422285      -0.00288920       0.00861864      -0.00082124
Si       6.14197819      15.95731128       6.91612629      -0.00445421       0.00569415      -0.01570890
Si       6.14209957      15.95734540      16.96430246      -0.00286870       0.00396492      -0.00037216
Si      15.35369928       5.31984417       6.92010840       0.07349756      -0.04483145      -0.05033172
Si      15.35532501       5.31900321      16.96391309       0.00395687      -0.00095749       0.00374484
Si      13.78581499       7.97056787       6.93666420       0.22175218      -0.02164128      -0.19336198
Si      13.81968663       7.97904649      16.96350885       0.00695991      -0.00530966       0.00139690
Si      12.28709980      10.60376737       6.87339533       0.01445014       0.22544139       0.74143086
Si      12.28426737      10.63880366      16.96337638       0.00404519      -0.00117802      -0.00816475
Si      10.75004205      13.29748305       6.91824861      -0.02035165       0.05186781      -0.04162744
Si      10.74866186      13.29780500      16.96393601       0.00097278       0.01691607      -0.00866557
Si       9.21291240      15.95639109       6.91622620       0.00176767       0.00812746       0.01035540
Si       9.21305991      15.95726059      16.96418386      -0.00047449       0.00557926      -0.00036029
Si      16.89001569       7.97846955       6.91862491      -0.05287541       0.00584859      -0.03225918
Si      16.89071527       7.97867827      16.96412677      -0.00046681      -0.00090107       0.00339604
Si      15.35940180      10.63989060       6.92388447      -0.08228008      -0.08086507      -0.05784647
Si      15.35516351      10.63863291      16.96400536       0.01469781      -0.01407510      -0.00979500
Si      13.81890783      13.29797505       6.91848661      -0.01135956      -0.06110604      -0.03666397
Si      13.81972967      13.29787776      16.96413220       0.00076724       0.01995811      -0.00922712
Si      12.28474899      15.95663985       6.91690583       0.01044691       0.03763624      -0.00830454
Si      12.28415519      15.95728461      16.96422647       0.00220330       0.00369285       0.00022063
Si      16.89027088      13.29755720       6.91602659      -0.00443822       0.00188767      -0.01727926
Si      16.89067389      13.29787768      16.96432638       0.00235196       0.00520389      -0.00322104
Si      15.35507292      15.95743030       6.91649094       0.00582987       0.01023324      -0.00305768
Si      15.35524009      15.95729384      16.96424215       0.00087269       0.00626692      -0.00051091
Si      18.42634020      15.95728844       6.91579603      -0.00315222      -0.00080799      -0.00452139
Si      18.42626635      15.95736006      16.96435351      -0.00126196       0.00355428      -0.00013880
Si       3.07143827      15.95706493       1.88815651      -0.00824192      -0.00097938       0.00111809
Si      16.89044760       2.65978703      11.93941544      -0.00028676      -0.00318817      -0.00612031
Si       1.53582987       2.65947426       1.88824114      -0.00326816       0.00207765       0.00267536
Si       1.53524156       2.65963942      11.93950208       0.00078184       0.00068914      -0.00469598
Si       4.60609560       2.65915969       1.88818807      -0.00354229      -0.00131834      -0.00133847
Si       4.60662126       2.65975325      11.93947755      -0.00093432      -0.00267145      -0.00470543
Si       3.07074851       5.31945108       1.88811108      -0.00412968      -0.00759315       0.00179632
Si       3.07108545       5.31916015      11.93941604      -0.00292358      -0.00038252      -0.00656248
Si      18.42610739      10.63871789       1.88839713       0.01691002       0.00854455      -0.00730030
Si      18.42589929      10.63807235      11.93934187      -0.00156322      -0.00115483      -0.00975285
Si       7.67752465       2.65738698       1.88744894       0.01793514      -0.00007360       0.00514195
Si       7.67760965       2.66022528      11.93918669       0.00071146      -0.00514277      -0.00998370
Si       6.14047205       5.31882816       1.88689997       0.00913482       0.00695220      -0.03310296
Si       6.14253797       5.31951446      11.93880898      -0.00130615      -0.00384023      -0.00448985
Si       4.60498524       7.98026923       1.88780052      -0.00379112      -0.00848134       0.00786153
Si       4.60702875       7.97848764      11.93915271      -0.00572723       0.00162092      -0.01046801
Si       3.07045220      10.63839140       1.88840396      -0.01230279       0.01634192      -0.00460652
Si       3.07110122      10.63812376      11.93948057      -0.00148510       0.00039752      -0.00772952
Si      10.74868824       2.65705022       1.88778785      -0.00262070      -0.01126297      -0.00320121
Si      10.74851404       2.66047099      11.93895974       0.00235765      -0.00137909      -0.01320114
Si       9.21947642       5.31722217       1.88760734       0.06216435       0.08656552      -0.00167919
Si       9.21294327       5.32064175      11.93712890       0.00687748       0.00216656      -0.02113918
Si       7.67883044       7.99038738       1.88385962      -0.00955181      -0.18155623      -0.01983876
Si       7.67865883       7.97816801      11.93718498       0.01463344       0.00364137      -0.02395509
Si       6.14094159      10.63761006       1.88452759      -0.14981815       0.15755637      -0.07321222
Si       6.14297724      10.63792038      11.93891109      -0.00186432       0.00210338      -0.02080541
Si       4.60665978      13.29784529       1.88832316      -0.00478293      -0.00997811       0.00606874
Si       4.60681464      13.29777420      11.93942067      -0.00171451      -0.00117423      -0.00816888
Si      13.81951245       2.65769631       1.88761659       0.00693788       0.01298291       0.01730103
Si      13.81940258       2.66026501      11.93916457       0.00176912      -0.00539317      -0.01092015
Si      12.27960289       5.31154597       1.88552040       0.01867556       0.20774701       0.08119847
Si      12.28406821       5.32064800      11.93699783      -0.00549145       0.00220404      -0.01618054
Si      10.76013686       8.06242318       1.89315475       0.18835875      -1.18560279      -0.17599888
Si      10.74856726       7.97891346      11.93645690       0.00107115       0.00417149       0.13090024
Si       9.21916720      10.65281795       1.89830717       0.17968787       0.09296376       0.06037857
Si       9.21445537      10.63791416      11.93667902       0.00898191      -0.00422365      -0.01425141
Si       7.67174068      13.30533854       1.88438165      -0.12344846       0.06223763       0.00273585
Si       7.67819646      13.29745478      11.93899492      -0.00663865       0.00052444      -0.00625820
Si       6.14215978      15.95749399       1.88859332      -0.02433856       0.03579650       0.00375280
Si       6.14211594      15.95746620      11.93946610      -0.00216310       0.00028003      -0.00575546
Si      15.35659417       5.31887624       1.88698098      -0.02503461       0.00019346      -0.02575614
Si      15.35440590       5.31950654      11.93873239       0.00254101      -0.00213400      -0.00434630
Si      13.83111973       7.99383244       1.88867131      -0.10880416      -0.25451764       0.01294474
Si      13.81807083       7.97817822      11.93706879      -0.01093959       0.00700212      -0.03695564
Si      12.29269162      10.65407011       1.91423520       0.14100478       0.18717788      -0.20009044
Si      12.28272957      10.63766155      11.93653952       0.00718955      -0.01805512      -0.00385240
Si      10.75118422      13.30755924       1.88598877      -0.11288955       0.15154143      -0.11636928
Si      10.74844325      13.29713119      11.93847891       0.00020739      -0.00056376      -0.00919972
Si       9.21301502      15.95672772       1.88862910      -0.00662420       0.03457057      -0.01096163
Si       9.21307323      15.95737828      11.93935313      -0.00211790       0.00214935      -0.00566790
Si      16.89166552       7.98011378       1.88820737       0.03924045      -0.02323852       0.00730046
Si      16.88990317       7.97854359      11.93912759       0.00463063       0.00108647      -0.01461515
Si      15.35533249      10.63443437       1.88974433       0.17865058       0.18077719      -0.07338585
Si      15.35413197      10.63777586      11.93879229       0.00136697       0.00058012      -0.02238654
Si      13.82179370      13.30660618       1.88845442       0.20357354       0.08020850      -0.08148444
Si      13.81881209      13.29726736      11.93896336       0.00602407       0.00277693      -0.02397405
Si      12.28397737      15.95647548       1.88860458       0.00685689       0.05150872       0.00365610
Si      12.28377817      15.95745317      11.93929302       0.00358329       0.00059690      -0.00800539
Si      16.89037259      13.29779465       1.88837180      -0.00115716      -0.00176114       0.01034367
Si      16.89020559      13.29770305      11.93937222      -0.00102933      -0.00033502      -0.00872906
Si      15.35487354      15.95707937       1.88859091       0.03518298       0.04294598      -0.00552989
Si      15.35481992      15.95759905      11.93939835       0.00122158      -0.00032913      -0.00880981
Si      18.42601920      15.95696431       1.88836416       0.00184246       0.00799171       0.00799793
Si      18.42601960      15.95754852      11.93953585       0.00012805      -0.00137181      -0.00712835
C        1.53540756       0.88685064       7.53493352       0.00239197       0.00303876       0.01101281
C        1.53540578       0.88668139      17.58724114       0.00250547      -0.00131526      -0.00309928
C        3.07116687       3.54611573       7.53482658      -0.00068270      -0.00140157       0.01180041
C        3.07099272       3.54621164      17.58731833       0.00121395       0.00020931      -0.00362606
C        6.14083349       3.54516044       7.53406654      -0.00694178       0.01761543       0.02302732
C        6.14207905       3.54628701      17.58751311      -0.00072414       0.00052294      -0.00412775
C        4.60498247       6.20521712       7.53402815       0.01222344      -0.01306635       0.02331293
C        4.60663845       6.20571122      17.58753543       0.00209028       0.00175120      -0.00317186
C        3.07057484       8.86534666       7.53459722       0.00697462      -0.00348564       0.01337643
C        3.07108848       8.86523179      17.58736014       0.00152113       0.00239934      -0.00070041
C        9.21113829       3.54387871       7.53220152      -0.03429768       0.14632059      -0.02430705
C        9.21305941       3.54658539      17.58804982      -0.00351352       0.00505887      -0.00099726
C        7.66906783       6.20157148       7.53103423       0.12425899       0.12011631       0.08845071
C        7.67768331       6.20544598      17.58775775      -0.00060828       0.00377661      -0.00392468
C        6.13931946       8.86443203       7.53269582       0.14085809      -0.08784587      -0.03508098
C        6.14229427       8.86496790      17.58796962       0.00520654       0.00084639       0.00488958
C        4.60728235      11.52474975       7.53410694       0.03330827      -0.01586055      -0.01934004
C        4.60634443      11.52492470      17.58708757       0.00545248      -0.00071637      -0.00066249
C       12.28659469       3.54366841       7.53196392       0.02761707       0.14793606      -0.00383845
C       12.28400796       3.54667078      17.58812621       0.00102515      -0.00156121      -0.00805917
C       10.74952655       6.14618376       7.55547022      -0.02341757      -0.34262599       0.36520536
C       10.74845258       6.20582795      17.58869971       0.00137666       0.03208548       0.03569509
C        9.16505821       8.91816754       7.54605106      -0.41109989      -0.05417340       0.40292527
C        9.21303333       8.86532732      17.58956910       0.00396658       0.00279286       0.01335016
C        7.68130019      11.53249771       7.52911554       0.14589963      -0.13665894      -0.06967088
C        7.67758789      11.52465483      17.58761744       0.01514299      -0.00111360       0.01540829
C        6.14077129      14.18651553       7.53442998      -0.00311880       0.00333610       0.02598463
C        6.14192607      14.18453550      17.58721722       0.00083371      -0.00247279      -0.00420654